LAMMPS Description

500 atoms
1 atom types

0.0 17.6 xlo xhi
0.0 17.6 ylo yhi
0.0 17.6 zlo zhi

Masses

1 58.69

Atoms # atomic

1 1 0.0 0.0 0.0
2 1 1.76 1.76 0.0
3 1 0.0 1.76 1.76
4 1 1.76 0.0 1.76
5 1 0.0 0.0 3.52
6 1 1.76 1.76 3.52
7 1 0.0 1.76 5.28
8 1 1.76 0.0 5.28
9 1 0.0 0.0 7.04
10 1 1.76 1.76 7.04
11 1 0.0 1.76 8.8
12 1 1.76 0.0 8.8
13 1 0.0 0.0 10.56
14 1 1.76 1.76 10.56
15 1 0.0 1.76 12.32
16 1 1.76 0.0 12.32
17 1 0.0 0.0 14.08
18 1 1.76 1.76 14.08
19 1 0.0 1.76 15.84
20 1 1.76 0.0 15.84
21 1 0.0 3.52 0.0
22 1 1.76 5.28 0.0
23 1 0.0 5.28 1.76
24 1 1.76 3.52 1.76
25 1 0.0 3.52 3.52
26 1 1.76 5.28 3.52
27 1 0.0 5.28 5.28
28 1 1.76 3.52 5.28
29 1 0.0 3.52 7.04
30 1 1.76 5.28 7.04
31 1 0.0 5.28 8.8
32 1 1.76 3.52 8.8
33 1 0.0 3.52 10.56
34 1 1.76 5.28 10.56
35 1 0.0 5.28 12.32
36 1 1.76 3.52 12.32
37 1 0.0 3.52 14.08
38 1 1.76 5.28 14.08
39 1 0.0 5.28 15.84
40 1 1.76 3.52 15.84
41 1 0.0 7.04 0.0
42 1 1.76 8.8 0.0
43 1 0.0 8.8 1.76
44 1 1.76 7.04 1.76
45 1 0.0 7.04 3.52
46 1 1.76 8.8 3.52
47 1 0.0 8.8 5.28
48 1 1.76 7.04 5.28
49 1 0.0 7.04 7.04
50 1 1.76 8.8 7.04
51 1 0.0 8.8 8.8
52 1 1.76 7.04 8.8
53 1 0.0 7.04 10.56
54 1 1.76 8.8 10.56
55 1 0.0 8.8 12.32
56 1 1.76 7.04 12.32
57 1 0.0 7.04 14.08
58 1 1.76 8.8 14.08
59 1 0.0 8.8 15.84
60 1 1.76 7.04 15.84
61 1 0.0 10.56 0.0
62 1 1.76 12.32 0.0
63 1 0.0 12.32 1.76
64 1 1.76 10.56 1.76
65 1 0.0 10.56 3.52
66 1 1.76 12.32 3.52
67 1 0.0 12.32 5.28
68 1 1.76 10.56 5.28
69 1 0.0 10.56 7.04
70 1 1.76 12.32 7.04
71 1 0.0 12.32 8.8
72 1 1.76 10.56 8.8
73 1 0.0 10.56 10.56
74 1 1.76 12.32 10.56
75 1 0.0 12.32 12.32
76 1 1.76 10.56 12.32
77 1 0.0 10.56 14.08
78 1 1.76 12.32 14.08
79 1 0.0 12.32 15.84
80 1 1.76 10.56 15.84
81 1 0.0 14.08 0.0
82 1 1.76 15.84 0.0
83 1 0.0 15.84 1.76
84 1 1.76 14.08 1.76
85 1 0.0 14.08 3.52
86 1 1.76 15.84 3.52
87 1 0.0 15.84 5.28
88 1 1.76 14.08 5.28
89 1 0.0 14.08 7.04
90 1 1.76 15.84 7.04
91 1 0.0 15.84 8.8
92 1 1.76 14.08 8.8
93 1 0.0 14.08 10.56
94 1 1.76 15.84 10.56
95 1 0.0 15.84 12.32
96 1 1.76 14.08 12.32
97 1 0.0 14.08 14.08
98 1 1.76 15.84 14.08
99 1 0.0 15.84 15.84
100 1 1.76 14.08 15.84
101 1 3.52 0.0 0.0
102 1 5.28 1.76 0.0
103 1 3.52 1.76 1.76
104 1 5.28 0.0 1.76
105 1 3.52 0.0 3.52
106 1 5.28 1.76 3.52
107 1 3.52 1.76 5.28
108 1 5.28 0.0 5.28
109 1 3.52 0.0 7.04
110 1 5.28 1.76 7.04
111 1 3.52 1.76 8.8
112 1 5.28 0.0 8.8
113 1 3.52 0.0 10.56
114 1 5.28 1.76 10.56
115 1 3.52 1.76 12.32
116 1 5.28 0.0 12.32
117 1 3.52 0.0 14.08
118 1 5.28 1.76 14.08
119 1 3.52 1.76 15.84
120 1 5.28 0.0 15.84
121 1 3.52 3.52 0.0
122 1 5.28 5.28 0.0
123 1 3.52 5.28 1.76
124 1 5.28 3.52 1.76
125 1 3.52 3.52 3.52
126 1 5.28 5.28 3.52
127 1 3.52 5.28 5.28
128 1 5.28 3.52 5.28
129 1 3.52 3.52 7.04
130 1 5.28 5.28 7.04
131 1 3.52 5.28 8.8
132 1 5.28 3.52 8.8
133 1 3.52 3.52 10.56
134 1 5.28 5.28 10.56
135 1 3.52 5.28 12.32
136 1 5.28 3.52 12.32
137 1 3.52 3.52 14.08
138 1 5.28 5.28 14.08
139 1 3.52 5.28 15.84
140 1 5.28 3.52 15.84
141 1 3.52 7.04 0.0
142 1 5.28 8.8 0.0
143 1 3.52 8.8 1.76
144 1 5.28 7.04 1.76
145 1 3.52 7.04 3.52
146 1 5.28 8.8 3.52
147 1 3.52 8.8 5.28
148 1 5.28 7.04 5.28
149 1 3.52 7.04 7.04
150 1 5.28 8.8 7.04
151 1 3.52 8.8 8.8
152 1 5.28 7.04 8.8
153 1 3.52 7.04 10.56
154 1 5.28 8.8 10.56
155 1 3.52 8.8 12.32
156 1 5.28 7.04 12.32
157 1 3.52 7.04 14.08
158 1 5.28 8.8 14.08
159 1 3.52 8.8 15.84
160 1 5.28 7.04 15.84
161 1 3.52 10.56 0.0
162 1 5.28 12.32 0.0
163 1 3.52 12.32 1.76
164 1 5.28 10.56 1.76
165 1 3.52 10.56 3.52
166 1 5.28 12.32 3.52
167 1 3.52 12.32 5.28
168 1 5.28 10.56 5.28
169 1 3.52 10.56 7.04
170 1 5.28 12.32 7.04
171 1 3.52 12.32 8.8
172 1 5.28 10.56 8.8
173 1 3.52 10.56 10.56
174 1 5.28 12.32 10.56
175 1 3.52 12.32 12.32
176 1 5.28 10.56 12.32
177 1 3.52 10.56 14.08
178 1 5.28 12.32 14.08
179 1 3.52 12.32 15.84
180 1 5.28 10.56 15.84
181 1 3.52 14.08 0.0
182 1 5.28 15.84 0.0
183 1 3.52 15.84 1.76
184 1 5.28 14.08 1.76
185 1 3.52 14.08 3.52
186 1 5.28 15.84 3.52
187 1 3.52 15.84 5.28
188 1 5.28 14.08 5.28
189 1 3.52 14.08 7.04
190 1 5.28 15.84 7.04
191 1 3.52 15.84 8.8
192 1 5.28 14.08 8.8
193 1 3.52 14.08 10.56
194 1 5.28 15.84 10.56
195 1 3.52 15.84 12.32
196 1 5.28 14.08 12.32
197 1 3.52 14.08 14.08
198 1 5.28 15.84 14.08
199 1 3.52 15.84 15.84
200 1 5.28 14.08 15.84
201 1 7.04 0.0 0.0
202 1 8.8 1.76 0.0
203 1 7.04 1.76 1.76
204 1 8.8 0.0 1.76
205 1 7.04 0.0 3.52
206 1 8.8 1.76 3.52
207 1 7.04 1.76 5.28
208 1 8.8 0.0 5.28
209 1 7.04 0.0 7.04
210 1 8.8 1.76 7.04
211 1 7.04 1.76 8.8
212 1 8.8 0.0 8.8
213 1 7.04 0.0 10.56
214 1 8.8 1.76 10.56
215 1 7.04 1.76 12.32
216 1 8.8 0.0 12.32
217 1 7.04 0.0 14.08
218 1 8.8 1.76 14.08
219 1 7.04 1.76 15.84
220 1 8.8 0.0 15.84
221 1 7.04 3.52 0.0
222 1 8.8 5.28 0.0
223 1 7.04 5.28 1.76
224 1 8.8 3.52 1.76
225 1 7.04 3.52 3.52
226 1 8.8 5.28 3.52
227 1 7.04 5.28 5.28
228 1 8.8 3.52 5.28
229 1 7.04 3.52 7.04
230 1 8.8 5.28 7.04
231 1 7.04 5.28 8.8
232 1 8.8 3.52 8.8
233 1 7.04 3.52 10.56
234 1 8.8 5.28 10.56
235 1 7.04 5.28 12.32
236 1 8.8 3.52 12.32
237 1 7.04 3.52 14.08
238 1 8.8 5.28 14.08
239 1 7.04 5.28 15.84
240 1 8.8 3.52 15.84
241 1 7.04 7.04 0.0
242 1 8.8 8.8 0.0
243 1 7.04 8.8 1.76
244 1 8.8 7.04 1.76
245 1 7.04 7.04 3.52
246 1 8.8 8.8 3.52
247 1 7.04 8.8 5.28
248 1 8.8 7.04 5.28
249 1 7.04 7.04 7.04
250 1 8.8 8.8 7.04
251 1 7.04 8.8 8.8
252 1 8.8 7.04 8.8
253 1 7.04 7.04 10.56
254 1 8.8 8.8 10.56
255 1 7.04 8.8 12.32
256 1 8.8 7.04 12.32
257 1 7.04 7.04 14.08
258 1 8.8 8.8 14.08
259 1 7.04 8.8 15.84
260 1 8.8 7.04 15.84
261 1 7.04 10.56 0.0
262 1 8.8 12.32 0.0
263 1 7.04 12.32 1.76
264 1 8.8 10.56 1.76
265 1 7.04 10.56 3.52
266 1 8.8 12.32 3.52
267 1 7.04 12.32 5.28
268 1 8.8 10.56 5.28
269 1 7.04 10.56 7.04
270 1 8.8 12.32 7.04
271 1 7.04 12.32 8.8
272 1 8.8 10.56 8.8
273 1 7.04 10.56 10.56
274 1 8.8 12.32 10.56
275 1 7.04 12.32 12.32
276 1 8.8 10.56 12.32
277 1 7.04 10.56 14.08
278 1 8.8 12.32 14.08
279 1 7.04 12.32 15.84
280 1 8.8 10.56 15.84
281 1 7.04 14.08 0.0
282 1 8.8 15.84 0.0
283 1 7.04 15.84 1.76
284 1 8.8 14.08 1.76
285 1 7.04 14.08 3.52
286 1 8.8 15.84 3.52
287 1 7.04 15.84 5.28
288 1 8.8 14.08 5.28
289 1 7.04 14.08 7.04
290 1 8.8 15.84 7.04
291 1 7.04 15.84 8.8
292 1 8.8 14.08 8.8
293 1 7.04 14.08 10.56
294 1 8.8 15.84 10.56
295 1 7.04 15.84 12.32
296 1 8.8 14.08 12.32
297 1 7.04 14.08 14.08
298 1 8.8 15.84 14.08
299 1 7.04 15.84 15.84
300 1 8.8 14.08 15.84
301 1 10.56 0.0 0.0
302 1 12.32 1.76 0.0
303 1 10.56 1.76 1.76
304 1 12.32 0.0 1.76
305 1 10.56 0.0 3.52
306 1 12.32 1.76 3.52
307 1 10.56 1.76 5.28
308 1 12.32 0.0 5.28
309 1 10.56 0.0 7.04
310 1 12.32 1.76 7.04
311 1 10.56 1.76 8.8
312 1 12.32 0.0 8.8
313 1 10.56 0.0 10.56
314 1 12.32 1.76 10.56
315 1 10.56 1.76 12.32
316 1 12.32 0.0 12.32
317 1 10.56 0.0 14.08
318 1 12.32 1.76 14.08
319 1 10.56 1.76 15.84
320 1 12.32 0.0 15.84
321 1 10.56 3.52 0.0
322 1 12.32 5.28 0.0
323 1 10.56 5.28 1.76
324 1 12.32 3.52 1.76
325 1 10.56 3.52 3.52
326 1 12.32 5.28 3.52
327 1 10.56 5.28 5.28
328 1 12.32 3.52 5.28
329 1 10.56 3.52 7.04
330 1 12.32 5.28 7.04
331 1 10.56 5.28 8.8
332 1 12.32 3.52 8.8
333 1 10.56 3.52 10.56
334 1 12.32 5.28 10.56
335 1 10.56 5.28 12.32
336 1 12.32 3.52 12.32
337 1 10.56 3.52 14.08
338 1 12.32 5.28 14.08
339 1 10.56 5.28 15.84
340 1 12.32 3.52 15.84
341 1 10.56 7.04 0.0
342 1 12.32 8.8 0.0
343 1 10.56 8.8 1.76
344 1 12.32 7.04 1.76
345 1 10.56 7.04 3.52
346 1 12.32 8.8 3.52
347 1 10.56 8.8 5.28
348 1 12.32 7.04 5.28
349 1 10.56 7.04 7.04
350 1 12.32 8.8 7.04
351 1 10.56 8.8 8.8
352 1 12.32 7.04 8.8
353 1 10.56 7.04 10.56
354 1 12.32 8.8 10.56
355 1 10.56 8.8 12.32
356 1 12.32 7.04 12.32
357 1 10.56 7.04 14.08
358 1 12.32 8.8 14.08
359 1 10.56 8.8 15.84
360 1 12.32 7.04 15.84
361 1 10.56 10.56 0.0
362 1 12.32 12.32 0.0
363 1 10.56 12.32 1.76
364 1 12.32 10.56 1.76
365 1 10.56 10.56 3.52
366 1 12.32 12.32 3.52
367 1 10.56 12.32 5.28
368 1 12.32 10.56 5.28
369 1 10.56 10.56 7.04
370 1 12.32 12.32 7.04
371 1 10.56 12.32 8.8
372 1 12.32 10.56 8.8
373 1 10.56 10.56 10.56
374 1 12.32 12.32 10.56
375 1 10.56 12.32 12.32
376 1 12.32 10.56 12.32
377 1 10.56 10.56 14.08
378 1 12.32 12.32 14.08
379 1 10.56 12.32 15.84
380 1 12.32 10.56 15.84
381 1 10.56 14.08 0.0
382 1 12.32 15.84 0.0
383 1 10.56 15.84 1.76
384 1 12.32 14.08 1.76
385 1 10.56 14.08 3.52
386 1 12.32 15.84 3.52
387 1 10.56 15.84 5.28
388 1 12.32 14.08 5.28
389 1 10.56 14.08 7.04
390 1 12.32 15.84 7.04
391 1 10.56 15.84 8.8
392 1 12.32 14.08 8.8
393 1 10.56 14.08 10.56
394 1 12.32 15.84 10.56
395 1 10.56 15.84 12.32
396 1 12.32 14.08 12.32
397 1 10.56 14.08 14.08
398 1 12.32 15.84 14.08
399 1 10.56 15.84 15.84
400 1 12.32 14.08 15.84
401 1 14.08 0.0 0.0
402 1 15.84 1.76 0.0
403 1 14.08 1.76 1.76
404 1 15.84 0.0 1.76
405 1 14.08 0.0 3.52
406 1 15.84 1.76 3.52
407 1 14.08 1.76 5.28
408 1 15.84 0.0 5.28
409 1 14.08 0.0 7.04
410 1 15.84 1.76 7.04
411 1 14.08 1.76 8.8
412 1 15.84 0.0 8.8
413 1 14.08 0.0 10.56
414 1 15.84 1.76 10.56
415 1 14.08 1.76 12.32
416 1 15.84 0.0 12.32
417 1 14.08 0.0 14.08
418 1 15.84 1.76 14.08
419 1 14.08 1.76 15.84
420 1 15.84 0.0 15.84
421 1 14.08 3.52 0.0
422 1 15.84 5.28 0.0
423 1 14.08 5.28 1.76
424 1 15.84 3.52 1.76
425 1 14.08 3.52 3.52
426 1 15.84 5.28 3.52
427 1 14.08 5.28 5.28
428 1 15.84 3.52 5.28
429 1 14.08 3.52 7.04
430 1 15.84 5.28 7.04
431 1 14.08 5.28 8.8
432 1 15.84 3.52 8.8
433 1 14.08 3.52 10.56
434 1 15.84 5.28 10.56
435 1 14.08 5.28 12.32
436 1 15.84 3.52 12.32
437 1 14.08 3.52 14.08
438 1 15.84 5.28 14.08
439 1 14.08 5.28 15.84
440 1 15.84 3.52 15.84
441 1 14.08 7.04 0.0
442 1 15.84 8.8 0.0
443 1 14.08 8.8 1.76
444 1 15.84 7.04 1.76
445 1 14.08 7.04 3.52
446 1 15.84 8.8 3.52
447 1 14.08 8.8 5.28
448 1 15.84 7.04 5.28
449 1 14.08 7.04 7.04
450 1 15.84 8.8 7.04
451 1 14.08 8.8 8.8
452 1 15.84 7.04 8.8
453 1 14.08 7.04 10.56
454 1 15.84 8.8 10.56
455 1 14.08 8.8 12.32
456 1 15.84 7.04 12.32
457 1 14.08 7.04 14.08
458 1 15.84 8.8 14.08
459 1 14.08 8.8 15.84
460 1 15.84 7.04 15.84
461 1 14.08 10.56 0.0
462 1 15.84 12.32 0.0
463 1 14.08 12.32 1.76
464 1 15.84 10.56 1.76
465 1 14.08 10.56 3.52
466 1 15.84 12.32 3.52
467 1 14.08 12.32 5.28
468 1 15.84 10.56 5.28
469 1 14.08 10.56 7.04
470 1 15.84 12.32 7.04
471 1 14.08 12.32 8.8
472 1 15.84 10.56 8.8
473 1 14.08 10.56 10.56
474 1 15.84 12.32 10.56
475 1 14.08 12.32 12.32
476 1 15.84 10.56 12.32
477 1 14.08 10.56 14.08
478 1 15.84 12.32 14.08
479 1 14.08 12.32 15.84
480 1 15.84 10.56 15.84
481 1 14.08 14.08 0.0
482 1 15.84 15.84 0.0
483 1 14.08 15.84 1.76
484 1 15.84 14.08 1.76
485 1 14.08 14.08 3.52
486 1 15.84 15.84 3.52
487 1 14.08 15.84 5.28
488 1 15.84 14.08 5.28
489 1 14.08 14.08 7.04
490 1 15.84 15.84 7.04
491 1 14.08 15.84 8.8
492 1 15.84 14.08 8.8
493 1 14.08 14.08 10.56
494 1 15.84 15.84 10.56
495 1 14.08 15.84 12.32
496 1 15.84 14.08 12.32
497 1 14.08 14.08 14.08
498 1 15.84 15.84 14.08
499 1 14.08 15.84 15.84
500 1 15.84 14.08 15.84
