ITEM: TIMESTEP
0
ITEM: NUMBER OF ATOMS
2000
ITEM: BOX BOUNDS pp pp pp
0.0000000000000000e+00 7.2200000000000003e+01
0.0000000000000000e+00 1.8050000000000001e+01
0.0000000000000000e+00 1.8050000000000001e+01
ITEM: ATOMS vx vy vz
-2.3997 1.73186 -1.43382
-1.95696 6.16354 -1.25687
4.68759 2.71286 1.53364
0.29984 0.01343 -0.887787
2.40409 3.51583 4.42411
3.49946 4.44529 -0.127703
-1.85969 -1.58801 1.63691
1.17016 -4.60789 1.31668
1.12073 0.884748 -1.49659
4.47858 -3.52236 -3.93938
-1.61308 -3.22707 0.618661
-0.215139 2.3123 0.16861
-2.71583 -1.16656 -1.17544
0.182717 -1.62009 0.705779
2.45144 -0.39568 -3.08221
-1.79067 0.992187 -0.373366
3.4203 -3.60647 -0.265333
-2.7018 -2.62047 0.673724
-0.722377 -0.286137 1.72173
-0.61418 2.00155 -1.37125
4.08113 -0.112307 -0.861527
1.53117 -2.36425 -0.853661
-2.33935 0.109055 -1.01757
-0.270717 1.75429 0.207355
-6.45989 -2.0256 1.09597
1.08916 0.639456 -1.1216
2.42495 -1.24062 0.82762
-4.93041 3.03077 -1.54877
1.61025 -2.84217 3.06207
0.284049 -1.18199 0.79732
-2.26445 -0.456879 -1.30922
-2.25664 -1.49509 0.13238
-2.27864 -0.133284 -4.68519
0.675165 -1.04119 -0.694429
-0.260394 -1.59647 3.8548
0.166276 -1.14099 -1.55872
-0.599768 -3.03389 -1.52514
0.315812 3.03321 -0.805311
-0.598891 4.38876 -0.404171
-0.221321 0.264011 -1.79499
-0.559238 -1.05002 -2.35219
1.59824 -0.155572 -2.33615
1.12912 0.0514927 1.51582
1.16692 -0.205054 -2.47293
-0.0369458 1.62742 -1.5545
0.550525 -1.03292 0.271047
5.94896 -0.612267 0.151682
2.1834 -4.5521 -1.58706
0.341968 -0.951268 3.34891
2.66945 -1.48833 2.05252
-4.38569 1.61121 1.49123
-1.94991 -3.69543 -5.11578
-0.590355 -2.13317 0.684831
-0.788476 -1.73842 -0.172668
0.845747 -2.24968 -2.81484
-0.644602 -1.35798 4.7809
4.11748 -2.76899 1.93175
-1.07071 -2.33192 -0.450399
-2.65225 -4.84296 3.87742
-1.72964 0.272265 0.705172
-0.475889 1.22862 1.3313
-1.29549 -2.9126 -1.99367
-0.307219 3.54321 -2.23002
1.09524 1.58531 4.24306
2.65134 -2.36161 -2.22596
-1.93601 -0.10502 0.804747
0.486423 1.01725 1.61567
3.18591 1.90527 -1.67605
-1.31615 0.708279 0.877219
4.81645 3.23659 -3.37114
-0.456669 -0.278796 1.20037
-0.296682 -0.729538 -0.609228
4.26312 0.465716 0.13694
0.0878252 -0.658452 0.0258416
0.222754 -0.758055 -0.39228
-1.42443 -2.66884 -0.629803
-0.222465 -0.385869 0.41708
-0.69325 0.650323 -0.27595
4.08104 -1.72174 2.6318
3.7692 -2.65125 3.58452
3.11303 2.77709 -1.90976
2.58496 4.40015 5.24069
0.0789136 -4.49488 -2.02613
-2.76679 1.28002 1.83485
1.68512 0.557257 0.813149
-0.652573 1.60003 1.24925
1.24768 -3.94225 -7.37846
-4.56487 -1.17488 3.97893
-0.420304 0.836962 -0.278546
0.290549 2.03729 0.42898
2.4092 0.879901 -1.87692
-3.57793 -2.30542 0.83869
-5.22944 3.92744 1.93159
-3.10987 0.596552 2.64752
-0.49038 0.611707 1.58101
2.45251 -3.38399 -4.66158
3.6907 0.130011 -1.29631
0.747795 -0.194089 1.10495
0.465497 -2.81493 2.37831
3.0391 -0.710089 -2.35419
-2.10284 -0.850026 -0.352441
2.89901 2.49245 -0.722044
-0.176185 -1.00541 -1.87716
1.96098 1.74802 -0.237531
0.898731 3.01166 -0.422544
-4.55907 -0.192378 1.56232
-1.78382 -1.99752 1.23866
-2.92192 2.4265 0.0803513
-0.543307 -0.278168 1.32544
-0.226621 -4.94168 2.17073
0.305911 2.93972 -3.09779
4.33681 0.656238 4.35949
-0.792963 0.875044 2.38711
2.16626 1.49054 1.86802
-1.78144 -1.55445 -1.16549
4.51857 -4.5958 0.419901
-0.0987062 -1.88479 3.73283
-0.751795 2.10336 -1.64192
2.58099 2.79335 0.843994
2.37163 -3.21939 -1.51343
-1.07599 1.68539 0.316119
3.34456 0.377391 -1.25229
-2.43292 2.05496 -0.640445
-2.09068 3.6009 -1.49699
5.42291 -0.0179811 3.71172
1.53373 -1.05765 -0.949367
-0.577454 1.73066 -0.848412
-2.69374 3.48612 0.58538
2.30998 3.61825 -1.88333
-0.462724 -1.05835 3.45014
1.04133 -1.33065 5.27591
2.35398 -3.95194 -0.958148
0.373068 -1.0405 -2.40161
4.3871 0.311219 1.12435
5.95834 -0.0574764 -0.301361
-0.542587 -0.165556 2.64976
-4.24697 1.08443 1.64265
0.778993 -2.62598 -2.02127
-0.987493 2.56649 3.67558
-3.09387 -1.67204 -0.229657
-0.668328 -0.580257 -2.55301
-3.33401 6.19921 0.00932292
3.32156 -3.37709 0.049165
5.14011 1.79577 0.156889
1.37363 1.00541 0.5739
1.91067 -3.43253 -0.218114
-0.46808 0.409127 -2.96855
-0.863311 -1.30156 1.52521
-0.615551 2.26145 -5.6888
1.71495 3.8273 0.782668
0.110209 0.30953 3.91043
-0.588763 3.91951 0.0562662
0.414372 4.2248 0.0487018
-1.45511 -1.92423 -0.955665
-3.2127 0.32644 -2.15949
2.80516 -1.60143 -2.06792
0.585683 -2.85653 -1.15082
-2.39027 0.482123 1.98446
-6.33451 0.795031 -0.721004
1.76901 0.12318 0.0677679
-1.27219 1.70816 0.40438
3.53766 1.06624 -3.26728
-1.86305 -3.16532 -1.09749
3.36289 0.212451 2.47687
-2.10129 2.80487 1.69798
0.495107 1.66273 0.974095
0.404091 -0.638458 -1.75756
0.473421 0.56062 2.00398
-0.206884 0.497356 2.08061
5.31997 4.87316 0.202419
0.567719 1.95113 1.82851
-0.141954 3.71446 0.935463
1.34047 -1.97979 -0.410445
2.84249 1.05838 -2.63262
-0.0410652 1.48916 -1.50931
-1.26428 -0.220966 -0.617709
0.163727 -2.18137 0.685575
-5.36049 -5.33165 -0.619024
-4.1833 1.28227 -1.08662
1.44105 -3.68589 1.34968
-1.23408 2.11735 1.89321
4.55933 2.42509 0.902117
-0.157986 -2.04332 2.46577
4.6168 3.68743 -0.564887
2.19289 -2.53416 -6.09404
0.61076 3.68507 1.46859
1.81866 0.160617 0.691846
-2.71929 4.23949 -2.34654
0.481176 -2.88254 -0.343201
0.0425315 5.51572 -1.37422
-0.0632259 -1.2626 2.05085
4.66087 2.51567 0.668063
-2.28899 1.29085 2.87282
-3.59125 5.29532 3.1629
-0.748321 -2.49423 2.78346
-0.088319 1.60976 -0.425457
1.05398 2.1328 -1.29993
2.42648 -0.609173 -2.41479
0.724117 1.68598 -0.491536
4.44461 0.493022 1.17725
2.14313 0.626739 1.66189
-1.25561 -1.44434 2.99074
-2.5548 2.48437 -0.389927
0.262055 -1.44711 -0.871536
-2.01961 1.72534 0.401081
1.87156 -2.6226 1.52076
-1.23431 -0.377743 -0.816392
-0.281926 -0.0568929 -0.506757
-0.176218 3.51406 2.06674
0.285543 -2.5295 0.301664
-2.84372 -3.13083 1.05181
1.05012 2.54715 1.7758
-0.347567 2.35517 0.585349
2.41257 0.532356 -1.14936
-2.18679 -3.34579 -2.80746
-0.757341 3.1269 0.128411
2.49905 -4.16423 -4.75106
4.23942 1.81495 -0.152297
0.670261 -3.45652 1.36459
-1.47812 -1.38573 -8.87982
0.531151 1.80198 -1.17197
3.4787 0.208463 0.582464
1.56965 -2.38987 -3.64661
0.325748 -1.28529 -2.88519
-2.22936 1.01872 -1.47389
-1.54444 3.55522 -0.904194
2.77655 1.03551 -2.66008
1.20469 1.00555 -0.816023
-0.0511217 -1.83302 -3.18499
-0.087476 2.21279 -1.38157
2.14092 -0.900843 5.67382
2.46905 0.51993 -4.28772
-1.38546 -0.913835 -0.21307
7.70356 1.85048 -0.895087
-3.26164 -0.118695 -0.0103935
-1.65951 2.72934 -2.75181
-1.32067 2.49106 -0.099899
-0.348992 -3.35819 3.03696
0.00660665 2.64463 -0.217856
2.36307 2.23506 -3.18998
-1.73088 -0.900551 -1.50727
2.17077 -0.190848 -1.33809
2.15888 1.45055 2.25355
2.6049 -1.22449 3.27644
2.71493 0.34358 -1.92732
2.09014 0.547724 -1.15048
3.18276 2.995 3.15055
6.41346 0.541252 -0.0446616
3.32219 0.660161 -0.438606
-2.51129 2.02439 -0.667427
-2.5475 -1.48204 2.01004
-2.17321 -2.77448 -1.18635
0.672989 -0.0559285 2.15898
0.534716 -0.702319 2.70125
0.397639 -2.62145 7.01917
1.80947 -1.35251 -1.03931
-4.72721 -0.778384 -3.47596
-0.477921 1.03174 -3.61755
2.63045 2.50205 -2.55814
2.46099 2.90494 0.116213
0.782703 0.527353 -2.32982
1.07188 -4.72808 -3.85668
-0.622546 -1.1542 0.463862
-1.41508 0.879561 -1.6944
-2.95264 -3.42295 -2.86434
-2.40208 -0.159464 -2.48299
1.00159 2.84067 3.9677
-3.73534 1.21868 1.89048
0.960189 0.926601 1.3436
-5.74021 2.36426 -0.815582
2.43722 1.05182 0.614583
2.04598 -2.12746 -1.21778
1.06478 -0.135831 -3.37666
0.0211119 0.986474 3.14288
2.27395 0.348563 -1.36547
2.42118 2.06683 -1.85219
-3.05566 3.91621 3.55291
-0.439349 1.98194 -0.692513
-5.69789 1.84309 2.34119
1.12028 -1.24313 2.05705
0.176023 -1.79319 2.5941
1.66276 -2.43151 4.06878
3.75019 1.29094 -0.217705
-1.06434 -1.35962 0.544328
-4.0744 0.14428 -1.46318
-2.39334 1.45935 -0.551822
1.08543 -0.598686 1.64288
-2.98172 1.84486 -0.361533
5.63453 -2.19919 -2.14208
2.65377 -7.28621 -1.02696
-0.573007 0.439756 0.2593
-3.16155 -1.91872 0.534195
-4.25893 0.27356 1.63023
-0.0305817 1.7654 -0.116938
-2.71194 0.574908 -4.37532
3.10983 -0.832437 2.02806
-4.87836 0.85197 3.04461
-0.299244 2.83502 -0.025032
-1.79927 -5.36322 -0.680192
-1.93153 0.783417 1.03531
-2.21567 -0.253387 -1.83754
-2.58079 1.67567 1.31578
-2.32407 4.00643 2.65927
-1.41013 1.93514 -2.13252
5.73426 -0.264775 0.0918454
-0.816062 -6.00529 0.9079
-1.46876 0.7119 -0.483871
2.76565 -2.22438 -1.4417
-2.22646 -2.02416 -0.0888512
0.17056 -0.0892426 1.67178
-2.06484 2.02977 1.59572
-1.13862 1.76912 -2.28284
-1.23182 1.52117 -0.294325
3.58974 2.60027 3.04982
1.1842 -1.08604 -3.62559
0.402744 -0.193747 2.79754
1.4823 -3.04629 4.28015
0.118831 0.854265 -1.78027
-1.43461 -2.51167 -0.0674944
-0.860139 0.576634 0.580362
2.16982 -2.13076 -1.23773
-1.45806 0.731117 -0.100123
2.02669 0.899558 0.0562648
-0.340456 1.949 -1.47957
2.02801 3.89509 -1.39923
-0.228157 -3.65772 -1.69967
-5.65025 -1.40623 0.374946
-0.653281 -0.981183 -1.5355
1.88911 -2.77511 0.770649
-0.810969 -0.134332 -0.423554
-1.53678 -1.19552 -2.58731
0.419741 2.48187 0.01843
1.71809 -4.3933 -3.045
-2.60167 -3.81641 1.9803
-1.09516 2.73387 4.65065
2.02286 0.449873 -5.45701
-3.66257 -2.50459 0.560382
-0.455636 2.31664 2.61446
0.963172 0.405092 -0.846568
0.668853 -0.795865 1.56878
1.86295 0.162978 1.97904
0.740946 -1.3943 1.22969
-1.86279 -0.708211 -0.517443
-1.05824 -4.68758 0.326415
-1.33936 3.06117 0.588608
1.38167 1.70284 -6.53736
-1.19811 6.23923 -2.96072
2.26434 0.212836 2.03647
-3.87741 0.184021 1.54682
0.496481 1.45971 1.91942
0.0886195 1.64581 -3.1779
3.89997 -3.02648 4.04752
2.55389 0.373386 -0.8905
0.152692 1.29484 -0.936497
3.32845 4.53942 -4.66417
2.32086 0.489994 0.449308
4.19735 0.158446 1.89346
-2.88759 -2.83066 0.983414
-1.08471 -0.876699 1.73471
-0.511765 2.07077 -1.89885
1.32189 -1.46501 1.61758
0.946671 2.38753 -3.56865
0.648755 4.23383 0.622579
-3.60476 -0.635996 -0.454345
-0.215505 2.2226 -0.0829586
-0.288099 -3.88031 -2.79016
-0.528758 0.142413 1.6676
-4.08014 1.23431 0.0948722
3.00627 0.882196 -0.700847
-1.66984 -0.253777 -3.8038
-1.10035 -0.045942 0.473717
-4.73 -0.425852 -0.810309
-3.08737 4.47886 0.21655
-1.6378 0.516811 2.3899
-0.530242 -3.97487 2.74384
-1.09814 -2.20362 -5.48075
3.24169 0.272697 -2.30888
2.40876 5.84235 -0.747133
0.00114759 -2.60545 1.08226
-3.03175 0.0199592 -0.928686
0.187077 -1.46702 -2.22552
7.17695 0.115054 -0.661567
-0.168692 -0.510828 4.08611
1.27698 3.0321 -2.66697
1.62326 1.5634 0.167357
0.555498 -2.48821 -0.694706
4.94806 2.2365 1.7582
-3.43615 2.25976 -1.48944
2.12873 4.9361 -3.44513
-2.09818 -2.63805 -1.06954
-2.99041 0.0494908 1.20581
0.579 3.01625 1.24113
2.12882 -2.95142 -0.423233
-1.83766 -1.51121 -1.50809
-0.0710089 -1.23654 -2.02453
1.26089 3.20518 3.63945
-2.78723 -0.201155 -0.457007
2.12012 4.7299 -0.0810995
1.01654 1.36944 2.16109
-0.698609 -4.6249 -2.06985
-1.36571 2.42507 -2.2792
-3.1455 5.71263 3.07151
0.179456 0.822792 1.56654
-0.149859 1.12257 -1.16134
-1.40584 0.881382 4.97232
0.326139 -0.826568 0.649444
-2.96717 -4.52228 2.79959
2.21751 0.111971 -1.65598
-1.36278 0.076439 1.17478
0.893992 0.662399 2.33932
-0.882788 -0.552878 0.652288
1.23278 3.9747 -0.658315
-2.11901 3.66918 3.26953
-0.546452 1.79189 -0.852111
-2.72783 1.05725 0.922547
1.52048 -2.18666 -0.106594
1.101 -1.4489 2.40313
1.5963 -2.32264 -1.58318
3.14174 -0.379315 -0.671461
3.68729 -1.5947 -3.44004
3.01155 -0.259981 0.645931
1.8156 3.85589 2.17837
-1.6364 -2.1744 -0.53226
-2.03997 -1.11081 1.84658
5.27554 1.06383 2.28711
-3.89562 -0.956776 -0.0913944
-2.56594 -2.63104 2.87438
3.52631 2.47611 2.88045
-0.81846 1.91472 -1.53826
5.67162 -4.24777 -0.849477
1.66083 0.604348 -1.5757
1.50736 0.637889 3.22429
1.95795 3.32546 -2.94187
-3.79761 4.46961 2.67388
-1.8727 -0.237521 -5.90971
0.725993 -3.44485 1.55561
2.21714 2.96682 -0.478802
-0.867271 -0.239259 0.29303
-1.42476 -0.151355 1.62943
-1.44326 -0.331877 2.2391
-0.169454 -4.01383 4.80969
-0.892906 2.97164 3.1586
-3.21102 -3.1655 2.26681
-3.15749 3.39058 -0.84989
-0.845419 4.58167 1.054
-2.46499 -0.235004 -2.08395
0.202774 -3.4029 0.944957
0.00511045 -4.09429 -2.73714
0.17567 4.83353 -1.6186
2.83666 -1.21993 -2.01056
0.912327 2.9923 -1.81552
2.53939 -1.01803 0.9136
0.911832 1.75903 3.26176
-5.79415 0.337902 -0.550795
-2.34477 -0.0891148 2.76509
2.56396 -2.42507 -3.0255
-2.86413 -3.5319 -1.96603
1.10386 0.851125 1.96896
-2.30703 -0.000410802 -0.0779608
-2.97842 -1.01338 1.15341
-0.571397 -4.5594 0.0501357
1.78882 2.32835 3.64855
1.42767 3.42053 -2.81699
0.853712 -0.646281 2.70505
-1.68822 2.83523 -1.99113
1.27951 -1.46314 0.769804
6.72526 2.06842 0.749777
-0.710165 2.35068 -1.97551
-1.324 -2.21928 1.16036
-1.67331 0.428693 0.367999
-3.27753 1.0505 -0.658036
3.68512 -0.763293 -2.45246
-1.98629 5.47078 -0.635481
-5.46862 0.99931 3.22682
-1.22468 0.0119759 -1.68575
4.69333 -3.97754 -1.67355
1.1597 2.42047 -1.03631
-1.29702 1.97618 2.18804
-0.49901 -1.83816 1.87125
-0.368642 -1.98577 0.00786728
-2.51645 0.647515 0.974444
1.33275 0.696966 3.05376
-1.03696 -3.46523 -1.15087
1.34313 -1.50304 0.98636
-1.05371 -0.616471 1.79688
-4.36251 1.53189 -1.36352
-0.539817 -0.591773 0.658079
2.39646 4.66075 -1.08574
-0.342318 -4.06445 -0.00329296
-0.990118 3.00358 0.199631
-0.746687 -2.9293 -1.96569
-1.03895 -2.73473 1.16175
-1.31391 -3.26106 -1.02854
-0.491125 -2.96647 -1.31992
0.981953 -2.82338 -1.87127
2.65111 1.91299 -0.430526
-0.580566 1.66129 -2.50937
-0.299753 -1.54313 -2.2877
-0.712218 -2.56294 -1.51662
1.43711 -0.395384 4.17137
-0.872236 0.842958 -2.50527
-1.67633 -0.777874 -3.6769
-0.552891 -2.25148 2.76621
-0.423507 3.33721 1.95105
-1.18907 2.17453 0.399721
2.59788 1.7402 0.275218
-0.259098 2.08396 0.00350593
-0.360793 -1.90859 -1.37574
-2.16313 1.08251 -1.82688
0.327409 5.24596 2.71488
0.193577 -1.58858 -0.640504
-1.90138 -0.372636 -2.61608
2.51853 -0.813326 -2.02698
-2.27282 2.6827 -1.77726
1.28938 0.215922 -4.3693
-2.9299 0.3629 2.78561
1.41434 -2.75435 -3.62744
-2.77244 3.9747 -2.04131
2.34618 -1.25989 0.451167
-1.43883 -0.432004 -1.0632
-1.1466 -3.10562 1.21094
-1.84483 1.56049 1.17419
-1.52134 0.193789 -3.77956
-0.787589 1.36577 -2.63734
0.610941 -0.267225 1.54846
4.34135 -0.341731 0.616958
-7.18394 -1.05953 -2.44725
1.81683 0.868452 -0.684356
-1.80164 -4.36323 -3.52286
-0.0935575 -1.03211 1.2413
3.11403 -0.647746 3.73641
0.712292 -3.06278 1.39387
-2.76803 2.54638 -1.59472
-2.14203 3.34465 0.111181
2.31455 -0.76662 2.85986
0.907588 -2.07134 2.2358
-0.0363306 -1.57141 0.205754
0.3914 1.9295 3.74875
1.69892 -0.978555 2.07566
3.67304 1.41643 -3.70468
0.22192 2.11906 1.9533
-1.2256 -0.123598 -1.84177
-0.883716 2.20047 -0.994568
4.28977 0.661789 -0.125886
-1.89168 -1.5014 -0.111741
-2.17122 0.479168 2.21525
-5.42523 -0.140761 -3.25515
1.15928 -1.21976 2.39043
7.46085 0.184139 -2.14981
1.61981 -2.13607 -0.672397
1.88841 3.46048 -0.67887
0.124971 7.60231 0.718344
4.24381 -3.5227 0.344361
-0.192282 -0.231661 2.04898
4.33444 -1.21482 0.919353
-2.31794 -3.22615 0.533515
-1.61722 4.6425 0.0186751
1.82766 1.27365 2.18118
-0.182464 -0.533716 -0.534828
-0.469874 -1.32395 -0.121977
-2.92389 -1.00387 1.11339
1.51778 -0.64358 0.242269
0.750257 -0.733446 -1.37603
2.69445 1.88876 -1.47664
-1.65811 0.129891 3.51492
3.96259 -0.142422 0.0717729
-2.66796 0.0521499 1.32478
-2.10786 -4.88525 2.6484
-0.951987 0.945151 3.53711
0.322008 -1.65479 -1.95422
-1.03971 0.196649 1.06569
0.30574 -0.406957 -1.16921
-1.6091 2.03353 3.34047
2.58567 1.61572 2.1397
2.51694 0.762075 1.19951
-0.362029 -3.35186 -2.66383
0.593216 4.2042 -4.03584
3.53982 1.23623 3.05439
1.6115 2.10944 -2.33542
2.02412 0.834641 -0.0312568
-1.58727 0.967523 -3.6635
-2.99759 -3.51831 -1.46188
-2.7606 -1.4277 -2.03115
1.1666 1.18006 -1.39845
1.73312 -2.41467 -0.618598
1.02221 -0.892493 0.806612
2.30547 3.33843 1.47781
-0.531263 4.94101 0.740793
1.18924 0.316478 -0.700013
2.06658 -0.553392 0.916088
-0.614537 -0.398019 -1.55241
-0.155205 -4.49407 -1.06015
0.45916 2.65531 0.495015
0.525742 2.39046 -2.815
-0.479702 -1.51715 0.975566
-0.638148 -2.52766 -3.78974
-5.20759 4.16858 -1.63956
-0.214981 -3.63187 -2.78743
-1.89264 -1.93049 0.692292
0.89249 -2.6392 1.40146
5.169 6.19275 -2.0377
-2.73139 0.323476 -0.336184
1.46088 -1.04561 2.21512
1.18609 3.7801 1.6162
-4.58063 3.01116 -3.59236
0.828371 -1.7285 0.713791
1.64589 2.78536 0.971907
1.22078 -0.250848 2.31632
2.39044 -1.20194 3.47053
1.67176 1.08251 0.33128
-1.4496 -1.94366 -0.153334
1.38247 2.22715 1.53749
0.0397979 -1.70662 0.00871645
3.80886 -1.50599 -0.506025
0.263709 -2.27364 -1.38163
-0.596447 2.79352 0.196217
1.37966 0.142964 -0.456132
3.2143 0.157957 0.376305
-4.99664 -0.670377 0.917395
0.23045 0.459971 -0.484737
3.57782 -1.43473 -1.87202
2.88756 1.19493 3.21647
-1.11898 2.82553 -3.53536
-2.78329 -0.662203 2.37758
-5.49601 -1.47512 0.212432
-0.00856882 1.89953 -2.10872
3.26379 1.64577 1.00326
2.8466 0.917403 3.79044
-4.19059 1.26941 0.912517
-1.85794 1.82873 -0.171214
1.61723 4.11063 0.186129
1.16423 -0.110362 0.433797
-1.57974 0.372999 -2.99428
5.64728 -2.06527 -1.19111
1.46803 -1.51965 3.11527
0.941776 2.21431 -1.63969
0.924186 0.540325 -2.65959
2.84428 -0.460275 4.83573
-1.0899 -0.974967 -2.34588
-4.36504 1.08128 1.31491
0.388494 -0.288459 -3.92201
0.818024 -0.290094 -2.56604
2.32452 -2.64917 2.25121
1.74378 2.37223 -4.31307
-3.37724 -1.6787 2.02544
0.662717 -1.03806 0.25391
-1.39835 -4.05012 3.13857
-1.01583 -2.34401 -0.233842
1.99873 -0.271177 -5.33396
0.898 -0.640202 -5.49402
0.0436283 1.78914 3.66262
-2.78561 -4.00615 1.79634
1.07346 -1.85543 -1.22638
0.997853 -1.62015 -1.0031
-2.41422 0.762386 2.4195
0.116343 2.80728 -0.694409
-1.31036 2.1669 1.26125
-0.657226 -0.229683 -0.557965
2.16824 0.913004 2.0244
-0.272783 6.06488 -2.14443
-4.118 0.591775 0.0550007
1.0602 -0.936851 2.43195
2.96724 1.47397 -1.41063
-0.973387 -0.586424 -0.663544
-2.66744 -0.789311 1.43271
-2.59168 -2.86102 0.2431
-3.94705 -3.68353 0.194711
-2.25113 -0.31254 6.07715
-1.18913 4.83355 -0.857268
-2.78656 -1.23352 -2.23801
-4.32144 -0.39446 0.509162
-2.86674 -1.50053 0.344452
2.47629 0.311787 -1.53116
2.13648 3.32444 5.10395
3.15634 -1.08361 -3.19379
3.28342 -0.825527 -3.22051
-1.42732 -2.18809 -0.0595427
-0.0461867 0.115538 -0.249348
2.72549 3.23249 -0.31085
2.60214 3.42492 1.91837
0.577606 -2.22999 -1.76133
-0.31377 -0.803673 -1.5946
2.11993 -0.139526 1.03314
-1.67146 -0.521853 -0.111562
2.25086 1.56475 2.11649
-0.953712 0.186168 -4.37193
1.04161 3.9423 1.48338
-1.02856 -0.773827 -2.50128
-4.2137 -2.54122 -1.99708
2.40511 0.2794 3.55213
-2.23673 0.293178 -0.604901
0.12023 1.90233 -4.88962
0.0474414 -3.28378 1.57399
-1.41186 -0.986072 3.23762
-1.2344 0.7212 4.21036
2.56756 -0.000261727 0.629292
-1.48492 2.88098 -2.26404
1.08547 -2.82361 -1.97823
-0.786452 -0.859941 3.3152
-3.77344 -2.40342 -2.27689
-0.419754 -4.18068 -0.46262
3.474 -0.770455 2.9535
2.61994 1.2352 0.936778
2.41572 -3.90691 -0.369155
2.01086 -3.4812 1.4892
0.821364 1.36324 -0.790821
-1.76472 0.095883 1.69635
4.26067 3.8906 1.18284
0.3235 -0.0115166 1.38174
-1.3703 -0.691101 0.0209009
1.65204 1.13535 -2.10035
-2.45253 -2.4436 -0.19153
4.91088 -0.378155 -1.6144
0.996426 1.83597 4.14058
2.05158 -1.76226 -3.81852
-2.03012 2.454 -3.08939
-0.518757 0.702176 2.02931
0.976504 1.64536 1.2568
-3.05844 0.557776 3.36096
2.42668 2.27268 2.42139
3.46042 1.84498 -1.75654
1.092 0.120366 1.04752
-0.0384736 0.372136 -3.07146
1.60666 2.67541 -1.97094
0.0557103 -3.3142 0.29294
1.96301 1.62526 3.40249
1.18522 0.219433 1.78256
-3.40764 2.13833 -4.84997
1.73664 3.42768 2.7969
3.23489 0.419358 -0.152909
-2.88422 -3.58339 2.38681
-2.45681 -0.151188 3.8596
1.44018 -0.703726 0.921315
-2.85206 3.78075 -3.8409
-0.292904 0.489233 2.91749
3.05844 -0.879163 -2.8099
-3.08778 -3.1427 0.607515
-1.93288 0.0235688 1.19425
0.357636 -0.697878 1.44056
-2.01424 -5.40758 6.17307
0.285397 1.58011 2.12338
-1.43617 -0.78725 0.338433
-1.17588 0.409736 -0.329144
2.26422 -1.36359 -1.61305
-2.9191 3.42343 0.196371
-4.11893 1.97221 -0.137167
1.53385 3.67364 2.04428
-3.9244 -0.359577 1.11324
2.27967 0.36832 1.16977
0.260799 4.08986 0.382599
1.91453 0.610003 -0.03147
-3.03348 -0.165217 6.24652
-2.37135 -0.0251609 0.655147
-1.10256 -0.0347885 -1.41565
2.01507 -0.926166 -2.49922
-4.49902 1.22204 1.28043
-0.075098 2.44456 0.335716
-0.523264 -2.98491 -2.27472
0.356499 1.10007 -1.99917
0.963462 -1.07162 1.15334
0.136771 0.932544 -0.274223
2.85536 -2.77847 -1.90194
-3.7409 0.36099 -3.15934
-0.0776873 -4.49113 -0.933861
-3.90674 -0.0913383 -0.200699
2.20387 2.52255 -0.11415
3.3834 -0.106708 -3.70338
-2.96065 5.78479 1.40832
1.36229 -2.62538 0.770778
-0.64682 -4.20333 -2.54852
4.99405 -1.88428 4.78321
-1.35114 -0.438709 -2.1091
2.6283 -0.0712564 2.16308
-1.25438 2.44498 -2.44762
0.195695 3.45924 -1.5528
-0.211321 -1.60743 -1.95933
0.762627 -3.11821 -0.293016
1.75266 1.22373 5.32188
3.09466 -2.02533 -1.91093
2.35429 0.421798 -0.419829
0.823291 0.282027 2.375
1.28137 -4.70524 -5.0259
-0.957114 3.89374 -1.95924
0.872869 1.30708 0.556115
2.33239 -0.0949898 0.700327
-1.74911 1.12233 2.06554
-0.616503 1.59648 -0.838153
-0.834981 1.85816 -2.7397
-1.03453 1.40459 0.809274
2.41729 1.77489 -2.45582
-0.89182 3.89245 0.19763
-6.41468 -1.23274 -4.84669
-1.26004 2.53932 -1.70792
-2.18015 -3.41512 0.187356
-1.4348 -1.67652 -1.71767
1.69969 0.70205 -1.48759
0.569912 -0.937617 -0.471482
-2.33827 1.21575 4.86808
2.88709 -0.0181912 2.18387
-2.26958 -0.0398254 3.68076
-1.84496 -1.45677 3.10247
-1.85858 1.5629 -0.75797
-1.53329 0.596682 3.87375
-0.626839 -1.93283 0.102608
0.051485 -5.12788 3.10378
-1.19781 2.02043 -3.39566
1.23929 3.34996 -3.86262
3.23047 0.37874 3.27557
-3.42387 -2.76424 -1.26819
-1.16384 -1.78822 1.68374
0.0142315 -2.80279 -5.50408
-0.003552 2.00474 2.37879
3.44607 -1.10713 -2.69551
-1.64184 -1.61546 -3.87853
1.15785 -1.48218 1.1245
-0.619369 -1.8545 1.01313
0.881764 0.199135 2.60134
1.60029 -1.1865 1.00649
-1.31829 1.07945 0.271487
-0.113463 0.272255 0.502253
-0.761604 -2.48946 -2.0721
1.97043 -0.827916 1.01629
-1.5523 0.48211 -1.18359
2.91525 -1.2098 -0.544454
1.00016 -0.493772 -1.77283
-3.25969 1.76558 -1.34331
0.572649 3.88313 -3.41717
-4.98154 0.641903 1.17949
-3.74354 2.26077 0.914434
-0.762124 0.309427 1.02496
1.80386 1.96627 -1.78894
1.32007 1.8454 3.80336
-0.0699949 -0.915276 2.52449
-0.201784 4.41076 0.749319
-0.482886 2.63446 0.242541
0.340297 2.44046 -1.02522
-0.410885 2.00348 2.58731
-0.281475 0.0526504 -2.46884
0.1849 0.0861562 -1.62022
-0.387401 -1.04838 1.44517
-0.697332 -4.24788 1.98719
-0.267847 0.927055 -2.01928
-1.86623 2.26923 0.725778
1.33014 -0.562486 -0.544019
2.94543 -0.489985 -0.777352
-3.17592 0.0260969 0.387608
-0.860388 3.88462 -1.03812
2.21147 5.54545 -2.24329
-2.14379 0.964167 -0.586637
-4.50938 1.08978 0.990672
-0.375503 -0.109028 0.873288
-0.624681 -0.836054 -0.90375
-0.0605454 5.73303 1.76401
0.504025 -1.36553 0.559493
-2.05514 3.86256 0.747453
-1.68716 -2.66021 -0.39101
-6.58746 -0.965507 -1.56291
-0.190128 0.155284 -4.97549
-1.50088 -3.63668 0.574465
-1.8829 -0.589001 -3.50536
2.91488 0.790797 2.13161
2.34618 1.04562 4.73491
-0.595922 -1.46503 -3.10569
1.19245 -6.41617 -3.04482
0.304839 1.61824 1.97931
-3.09741 -1.34839 -1.49558
2.31012 -3.01109 -3.3311
0.104089 1.00908 0.933296
0.431606 -2.02931 -0.297137
2.78372 -2.06668 -1.69995
-0.963417 3.56264 5.08283
-3.16992 -2.85175 0.82985
1.08311 0.399802 -1.01216
-1.92892 -1.72747 -2.22419
-0.51712 -1.00847 0.307534
-3.14901 0.109753 -2.62779
2.46416 1.35632 3.84567
-4.34465 -1.58528 -6.4349
4.56854 -4.29414 2.15376
-2.71085 4.58998 -0.644574
0.380831 -0.884851 -3.93269
3.56938 -1.4789 1.12858
1.00257 -1.11674 -1.38745
-0.972011 -1.7658 2.97164
0.0368471 0.296352 -2.40233
0.0215351 -1.13333 1.76561
-0.297978 -2.27391 -2.31216
-0.00167822 1.64868 -0.121945
-0.890635 -3.52674 -1.35078
0.537071 3.94712 3.00037
-4.54814 0.564211 2.89888
0.794597 -0.816862 -1.21889
-2.1304 -0.935384 -1.53561
1.8627 0.00138557 -3.43451
4.45581 -1.12653 -2.84766
-2.80232 0.647915 3.84156
1.82863 -1.75229 1.82482
1.6772 -1.09658 -1.99601
0.10937 4.22869 -2.264
-4.97703 1.92456 1.31804
-0.680236 -2.55282 0.553287
0.711922 -0.456065 -0.624876
2.70438 -1.55818 1.52997
1.90911 -0.383387 -4.54208
3.46191 -6.70279 2.15689
2.22472 3.17492 -0.589802
1.70384 0.0300642 0.401417
-2.14777 0.752294 -0.553751
0.0666175 -0.212225 0.919377
-0.309967 1.16439 3.75422
-0.231917 0.335142 -2.61855
0.772679 -1.40585 2.01623
-5.42656 4.60142 2.68612
-0.177873 4.66322 2.19425
0.642641 2.62388 -4.26677
0.359316 -0.321425 0.945757
1.06272 -1.06605 -2.0471
3.75242 -0.423056 -1.64919
-0.596714 -1.99289 1.58194
-2.31426 0.4078 -1.06773
2.58512 3.094 2.72074
-1.61263 4.10168 0.600219
-0.88369 1.85678 -3.87117
-1.52093 0.746512 -0.471616
0.70976 -2.45696 -1.44768
-0.723159 0.96268 2.86121
1.78799 0.0349736 -1.80596
2.08829 3.80728 -2.32337
-2.04499 -1.96486 -1.61205
-0.719175 -0.554485 -1.69659
1.48398 0.931375 0.848563
-4.14601 1.61163 -1.33128
-0.444558 2.91768 2.1094
0.36664 0.735568 -0.0491006
-3.35367 -3.12234 4.01587
2.37204 -1.39707 -1.10135
-0.128837 0.995847 4.92645
2.79742 3.32301 -4.37909
-0.965748 0.891734 0.501481
-2.48712 0.160041 2.01999
1.92674 -3.08545 -0.765945
3.32896 2.65369 4.01353
-2.75593 0.263141 -1.38178
-2.20354 -1.40332 4.81991
0.304636 0.215187 3.32327
3.10652 0.203566 0.537239
-1.87294 -2.50132 -2.86793
-0.709423 3.40875 -1.14508
-3.33946 -2.11541 -1.21522
-0.0706084 1.31911 -3.16389
-2.66016 -2.1392 2.49799
1.27045 -2.23489 -2.852
-4.95956 2.86378 1.70248
-0.520827 -2.28293 -2.20356
2.67295 1.28614 1.50442
-1.12366 2.30614 -2.16304
0.897439 -1.65727 0.900736
-2.06932 -0.342712 3.31111
2.22029 -2.32476 -0.632124
4.85603 0.830528 -1.83907
-4.18939 -1.49935 -0.116533
-1.45659 1.88671 -1.27363
1.90528 1.16472 1.6369
-1.16989 2.18211 3.01878
3.4051 0.90509 1.39023
0.880888 0.890249 -2.36392
1.25684 3.71454 -0.0338147
0.0198207 -2.35081 5.05224
-0.753528 -0.257732 1.80621
-0.855567 -0.653725 -0.395625
-0.19176 1.55725 3.40789
-0.599333 -2.56509 -0.894827
-1.36068 -1.87728 -0.0823803
3.39817 -3.99128 2.6569
-4.83932 -0.684691 -1.69936
-1.40233 3.85416 -0.405303
1.35315 0.0109955 3.5388
-0.817844 -5.97445 0.72871
-1.66047 -2.78305 -4.83771
-4.80262 -0.722137 -4.34879
0.536521 3.542 1.01851
2.87304 -1.93406 0.588957
4.06538 -3.29489 -2.27228
-3.43268 -3.1155 0.14517
4.61557 -0.0400939 1.11308
0.714891 -1.34707 -1.58101
-3.65488 1.25437 2.79544
2.94301 2.49693 2.13423
0.115841 2.74621 1.41126
0.325056 -4.24799 1.32736
-1.64425 -2.38141 2.33327
2.89254 0.819861 -0.0964064
3.99644 -1.12454 -2.42185
-0.15928 -3.31194 7.00586
-1.87442 3.45556 3.71131
-1.02334 -4.7766 0.176481
2.22868 -4.76373 1.41538
-4.35964 -0.927596 -3.06696
-0.886168 -4.40714 1.83451
0.0342396 -3.57078 -0.673239
-0.842577 1.62999 -2.57231
-1.32218 0.278756 -2.88309
-0.633152 1.24738 3.8019
-0.277915 -4.41318 0.831211
0.430943 -0.680275 -0.279208
1.14413 3.29942 1.15125
4.84007 5.20032 1.75561
2.60074 -5.53349 -2.14335
3.48217 -0.701382 0.861587
0.652235 4.37439 2.11713
2.34589 1.45724 -1.18702
-2.48792 -1.64772 0.182281
-1.02476 -1.48113 -2.76717
0.184245 -2.5079 3.91386
3.60734 -1.30007 -0.0885007
2.15914 4.15134 -4.30626
-0.808207 -2.56318 0.325058
-0.123756 -1.34085 0.11674
-1.14992 2.92764 -2.85498
-4.70206 4.6996 0.867457
1.30256 2.59897 -0.481146
-1.17966 2.16546 -1.56163
3.5361 0.715219 -1.01867
-1.90431 -1.79583 -1.71658
-0.728243 -0.341567 -1.98586
2.69634 -0.397529 -0.431715
3.83861 1.37083 2.07221
2.94339 -1.86316 2.69919
0.00193616 0.279712 0.517938
0.222466 1.64794 1.51949
-1.51182 -1.22644 -0.980187
4.02782 -1.50751 -1.97807
1.81645 0.60233 -3.71925
-2.29405 -1.66332 3.02059
1.90934 4.01988 -1.10218
1.91208 -1.73912 0.577445
3.07744 0.394013 1.64834
0.288142 0.492061 -2.77046
0.544198 1.18952 3.598
-5.18746 1.24503 -0.581923
2.76499 -0.712815 2.68679
1.17928 -0.271109 -0.135437
-2.78575 2.28137 2.12023
0.382021 -0.473648 3.60776
-1.31281 -4.27797 -1.18375
0.54581 -2.2149 1.1789
-1.58935 1.59025 2.48813
-2.62278 -2.08567 2.23723
-4.02628 -1.0426 -2.77666
1.44538 2.95607 -1.99571
-2.2467 -2.85431 1.17355
-1.6496 -1.30379 -3.03894
-1.59095 1.93675 -6.15311
-0.146812 2.01149 -2.30699
-1.28356 -2.42221 -2.13104
-0.209371 -4.67307 0.838768
2.51224 -2.36416 -2.56403
0.534423 2.94482 -1.19714
1.81653 3.13272 -2.31063
-2.62067 1.00187 2.04289
-3.75275 -1.13399 -0.112953
-2.28058 -0.099389 4.20281
2.52222 1.6821 -1.21774
-1.94193 -2.27612 -2.44467
-1.40055 -1.35715 2.45474
2.07076 -2.98893 -2.32866
-1.37063 -0.374766 -1.59176
3.69358 -0.121087 -0.36266
-4.07416 -1.94276 -3.7652
2.31442 -0.211627 1.37044
-0.661293 -2.77559 -0.395866
-3.94705 -0.248471 1.93297
-0.120244 -0.906221 -2.7093
-1.23229 0.848482 3.94588
2.56843 2.00363 0.242008
-2.12643 -2.35784 0.966484
0.997005 1.62443 0.261383
0.0392513 3.70483 1.78143
0.356673 2.51214 -2.35419
-4.27937 2.07795 0.697745
-5.58477 -1.79159 5.54716
-1.41184 -0.225274 3.39584
1.69032 -0.99633 0.878913
-0.804371 1.88346 -1.94
-1.60421 -0.920374 -2.75593
-2.66336 -2.27012 2.12542
0.165372 -1.99202 -6.97346
0.926321 -1.40348 -0.367574
-0.603317 -0.674748 -1.48861
-1.14982 3.09944 -1.94639
0.96046 -2.59763 2.73502
-1.05133 2.28661 -2.2834
-1.36731 -1.11433 1.41752
0.753877 3.13599 -0.677349
-1.23479 2.16052 2.68319
-0.714536 -0.511976 0.846123
-0.758182 1.47643 -1.2338
2.03035 0.784608 1.86482
2.6488 -1.29527 3.80134
-0.418727 0.561256 -0.962852
1.55845 -3.32573 -1.41584
-1.00573 -2.5504 -2.08835
0.793422 -2.45829 -1.40695
-5.2357 -2.32627 -0.909714
2.62741 2.13688 1.12123
-2.02449 -1.48283 -4.05115
-0.829908 1.44038 1.03296
0.980074 -1.89388 1.08307
0.118111 -0.840362 0.246467
3.31641 1.5986 -2.87877
-5.22414 0.551184 -6.01753
-4.43936 -0.934137 5.34516
0.795943 0.339455 -1.62387
1.88967 -0.767311 -2.2026
2.97956 -3.64945 -1.47971
-0.205468 -1.64778 -0.254574
0.0800161 1.641 2.38067
3.63043 0.945785 2.94029
0.00235353 0.192352 3.31494
-1.32365 1.54492 2.08476
2.29678 -0.848272 -1.36957
0.868589 1.19217 5.84958
-1.54135 -0.724383 -5.30552
-2.35442 -2.27952 0.753932
-4.97884 -3.49093 2.47824
-3.21214 1.00326 -1.12823
-4.47316 2.3691 1.06197
-0.256821 -1.7302 0.339902
-0.665995 -0.75337 -0.0842588
-1.69979 -0.000537347 1.60854
0.534887 1.01814 2.414
3.4816 1.80473 -1.49754
1.37536 -0.088812 -1.4568