LAMMPS Description

2000 atoms
1 atom types

0.0 72.2 xlo xhi
0.0 18.05 ylo yhi
0.0 18.05 zlo zhi

Masses

1 63.55

Atoms # atomic

1 1 0.0 0.0 0.0
2 1 1.805 1.805 0.0
3 1 0.0 1.805 1.805
4 1 1.805 0.0 1.805
5 1 0.0 0.0 3.61
6 1 1.805 1.805 3.61
7 1 0.0 1.805 5.415
8 1 1.805 0.0 5.415
9 1 0.0 0.0 7.22
10 1 1.805 1.805 7.22
11 1 0.0 1.805 9.025
12 1 1.805 0.0 9.025
13 1 0.0 0.0 10.83
14 1 1.805 1.805 10.83
15 1 0.0 1.805 12.635
16 1 1.805 0.0 12.635
17 1 0.0 0.0 14.44
18 1 1.805 1.805 14.44
19 1 0.0 1.805 16.245
20 1 1.805 0.0 16.245
21 1 0.0 3.61 0.0
22 1 1.805 5.415 0.0
23 1 0.0 5.415 1.805
24 1 1.805 3.61 1.805
25 1 0.0 3.61 3.61
26 1 1.805 5.415 3.61
27 1 0.0 5.415 5.415
28 1 1.805 3.61 5.415
29 1 0.0 3.61 7.22
30 1 1.805 5.415 7.22
31 1 0.0 5.415 9.025
32 1 1.805 3.61 9.025
33 1 0.0 3.61 10.83
34 1 1.805 5.415 10.83
35 1 0.0 5.415 12.635
36 1 1.805 3.61 12.635
37 1 0.0 3.61 14.44
38 1 1.805 5.415 14.44
39 1 0.0 5.415 16.245
40 1 1.805 3.61 16.245
41 1 0.0 7.22 0.0
42 1 1.805 9.025 0.0
43 1 0.0 9.025 1.805
44 1 1.805 7.22 1.805
45 1 0.0 7.22 3.61
46 1 1.805 9.025 3.61
47 1 0.0 9.025 5.415
48 1 1.805 7.22 5.415
49 1 0.0 7.22 7.22
50 1 1.805 9.025 7.22
51 1 0.0 9.025 9.025
52 1 1.805 7.22 9.025
53 1 0.0 7.22 10.83
54 1 1.805 9.025 10.83
55 1 0.0 9.025 12.635
56 1 1.805 7.22 12.635
57 1 0.0 7.22 14.44
58 1 1.805 9.025 14.44
59 1 0.0 9.025 16.245
60 1 1.805 7.22 16.245
61 1 0.0 10.83 0.0
62 1 1.805 12.635 0.0
63 1 0.0 12.635 1.805
64 1 1.805 10.83 1.805
65 1 0.0 10.83 3.61
66 1 1.805 12.635 3.61
67 1 0.0 12.635 5.415
68 1 1.805 10.83 5.415
69 1 0.0 10.83 7.22
70 1 1.805 12.635 7.22
71 1 0.0 12.635 9.025
72 1 1.805 10.83 9.025
73 1 0.0 10.83 10.83
74 1 1.805 12.635 10.83
75 1 0.0 12.635 12.635
76 1 1.805 10.83 12.635
77 1 0.0 10.83 14.44
78 1 1.805 12.635 14.44
79 1 0.0 12.635 16.245
80 1 1.805 10.83 16.245
81 1 0.0 14.44 0.0
82 1 1.805 16.245 0.0
83 1 0.0 16.245 1.805
84 1 1.805 14.44 1.805
85 1 0.0 14.44 3.61
86 1 1.805 16.245 3.61
87 1 0.0 16.245 5.415
88 1 1.805 14.44 5.415
89 1 0.0 14.44 7.22
90 1 1.805 16.245 7.22
91 1 0.0 16.245 9.025
92 1 1.805 14.44 9.025
93 1 0.0 14.44 10.83
94 1 1.805 16.245 10.83
95 1 0.0 16.245 12.635
96 1 1.805 14.44 12.635
97 1 0.0 14.44 14.44
98 1 1.805 16.245 14.44
99 1 0.0 16.245 16.245
100 1 1.805 14.44 16.245
101 1 3.61 0.0 0.0
102 1 5.415 1.805 0.0
103 1 3.61 1.805 1.805
104 1 5.415 0.0 1.805
105 1 3.61 0.0 3.61
106 1 5.415 1.805 3.61
107 1 3.61 1.805 5.415
108 1 5.415 0.0 5.415
109 1 3.61 0.0 7.22
110 1 5.415 1.805 7.22
111 1 3.61 1.805 9.025
112 1 5.415 0.0 9.025
113 1 3.61 0.0 10.83
114 1 5.415 1.805 10.83
115 1 3.61 1.805 12.635
116 1 5.415 0.0 12.635
117 1 3.61 0.0 14.44
118 1 5.415 1.805 14.44
119 1 3.61 1.805 16.245
120 1 5.415 0.0 16.245
121 1 3.61 3.61 0.0
122 1 5.415 5.415 0.0
123 1 3.61 5.415 1.805
124 1 5.415 3.61 1.805
125 1 3.61 3.61 3.61
126 1 5.415 5.415 3.61
127 1 3.61 5.415 5.415
128 1 5.415 3.61 5.415
129 1 3.61 3.61 7.22
130 1 5.415 5.415 7.22
131 1 3.61 5.415 9.025
132 1 5.415 3.61 9.025
133 1 3.61 3.61 10.83
134 1 5.415 5.415 10.83
135 1 3.61 5.415 12.635
136 1 5.415 3.61 12.635
137 1 3.61 3.61 14.44
138 1 5.415 5.415 14.44
139 1 3.61 5.415 16.245
140 1 5.415 3.61 16.245
141 1 3.61 7.22 0.0
142 1 5.415 9.025 0.0
143 1 3.61 9.025 1.805
144 1 5.415 7.22 1.805
145 1 3.61 7.22 3.61
146 1 5.415 9.025 3.61
147 1 3.61 9.025 5.415
148 1 5.415 7.22 5.415
149 1 3.61 7.22 7.22
150 1 5.415 9.025 7.22
151 1 3.61 9.025 9.025
152 1 5.415 7.22 9.025
153 1 3.61 7.22 10.83
154 1 5.415 9.025 10.83
155 1 3.61 9.025 12.635
156 1 5.415 7.22 12.635
157 1 3.61 7.22 14.44
158 1 5.415 9.025 14.44
159 1 3.61 9.025 16.245
160 1 5.415 7.22 16.245
161 1 3.61 10.83 0.0
162 1 5.415 12.635 0.0
163 1 3.61 12.635 1.805
164 1 5.415 10.83 1.805
165 1 3.61 10.83 3.61
166 1 5.415 12.635 3.61
167 1 3.61 12.635 5.415
168 1 5.415 10.83 5.415
169 1 3.61 10.83 7.22
170 1 5.415 12.635 7.22
171 1 3.61 12.635 9.025
172 1 5.415 10.83 9.025
173 1 3.61 10.83 10.83
174 1 5.415 12.635 10.83
175 1 3.61 12.635 12.635
176 1 5.415 10.83 12.635
177 1 3.61 10.83 14.44
178 1 5.415 12.635 14.44
179 1 3.61 12.635 16.245
180 1 5.415 10.83 16.245
181 1 3.61 14.44 0.0
182 1 5.415 16.245 0.0
183 1 3.61 16.245 1.805
184 1 5.415 14.44 1.805
185 1 3.61 14.44 3.61
186 1 5.415 16.245 3.61
187 1 3.61 16.245 5.415
188 1 5.415 14.44 5.415
189 1 3.61 14.44 7.22
190 1 5.415 16.245 7.22
191 1 3.61 16.245 9.025
192 1 5.415 14.44 9.025
193 1 3.61 14.44 10.83
194 1 5.415 16.245 10.83
195 1 3.61 16.245 12.635
196 1 5.415 14.44 12.635
197 1 3.61 14.44 14.44
198 1 5.415 16.245 14.44
199 1 3.61 16.245 16.245
200 1 5.415 14.44 16.245
201 1 7.22 0.0 0.0
202 1 9.025 1.805 0.0
203 1 7.22 1.805 1.805
204 1 9.025 0.0 1.805
205 1 7.22 0.0 3.61
206 1 9.025 1.805 3.61
207 1 7.22 1.805 5.415
208 1 9.025 0.0 5.415
209 1 7.22 0.0 7.22
210 1 9.025 1.805 7.22
211 1 7.22 1.805 9.025
212 1 9.025 0.0 9.025
213 1 7.22 0.0 10.83
214 1 9.025 1.805 10.83
215 1 7.22 1.805 12.635
216 1 9.025 0.0 12.635
217 1 7.22 0.0 14.44
218 1 9.025 1.805 14.44
219 1 7.22 1.805 16.245
220 1 9.025 0.0 16.245
221 1 7.22 3.61 0.0
222 1 9.025 5.415 0.0
223 1 7.22 5.415 1.805
224 1 9.025 3.61 1.805
225 1 7.22 3.61 3.61
226 1 9.025 5.415 3.61
227 1 7.22 5.415 5.415
228 1 9.025 3.61 5.415
229 1 7.22 3.61 7.22
230 1 9.025 5.415 7.22
231 1 7.22 5.415 9.025
232 1 9.025 3.61 9.025
233 1 7.22 3.61 10.83
234 1 9.025 5.415 10.83
235 1 7.22 5.415 12.635
236 1 9.025 3.61 12.635
237 1 7.22 3.61 14.44
238 1 9.025 5.415 14.44
239 1 7.22 5.415 16.245
240 1 9.025 3.61 16.245
241 1 7.22 7.22 0.0
242 1 9.025 9.025 0.0
243 1 7.22 9.025 1.805
244 1 9.025 7.22 1.805
245 1 7.22 7.22 3.61
246 1 9.025 9.025 3.61
247 1 7.22 9.025 5.415
248 1 9.025 7.22 5.415
249 1 7.22 7.22 7.22
250 1 9.025 9.025 7.22
251 1 7.22 9.025 9.025
252 1 9.025 7.22 9.025
253 1 7.22 7.22 10.83
254 1 9.025 9.025 10.83
255 1 7.22 9.025 12.635
256 1 9.025 7.22 12.635
257 1 7.22 7.22 14.44
258 1 9.025 9.025 14.44
259 1 7.22 9.025 16.245
260 1 9.025 7.22 16.245
261 1 7.22 10.83 0.0
262 1 9.025 12.635 0.0
263 1 7.22 12.635 1.805
264 1 9.025 10.83 1.805
265 1 7.22 10.83 3.61
266 1 9.025 12.635 3.61
267 1 7.22 12.635 5.415
268 1 9.025 10.83 5.415
269 1 7.22 10.83 7.22
270 1 9.025 12.635 7.22
271 1 7.22 12.635 9.025
272 1 9.025 10.83 9.025
273 1 7.22 10.83 10.83
274 1 9.025 12.635 10.83
275 1 7.22 12.635 12.635
276 1 9.025 10.83 12.635
277 1 7.22 10.83 14.44
278 1 9.025 12.635 14.44
279 1 7.22 12.635 16.245
280 1 9.025 10.83 16.245
281 1 7.22 14.44 0.0
282 1 9.025 16.245 0.0
283 1 7.22 16.245 1.805
284 1 9.025 14.44 1.805
285 1 7.22 14.44 3.61
286 1 9.025 16.245 3.61
287 1 7.22 16.245 5.415
288 1 9.025 14.44 5.415
289 1 7.22 14.44 7.22
290 1 9.025 16.245 7.22
291 1 7.22 16.245 9.025
292 1 9.025 14.44 9.025
293 1 7.22 14.44 10.83
294 1 9.025 16.245 10.83
295 1 7.22 16.245 12.635
296 1 9.025 14.44 12.635
297 1 7.22 14.44 14.44
298 1 9.025 16.245 14.44
299 1 7.22 16.245 16.245
300 1 9.025 14.44 16.245
301 1 10.83 0.0 0.0
302 1 12.635 1.805 0.0
303 1 10.83 1.805 1.805
304 1 12.635 0.0 1.805
305 1 10.83 0.0 3.61
306 1 12.635 1.805 3.61
307 1 10.83 1.805 5.415
308 1 12.635 0.0 5.415
309 1 10.83 0.0 7.22
310 1 12.635 1.805 7.22
311 1 10.83 1.805 9.025
312 1 12.635 0.0 9.025
313 1 10.83 0.0 10.83
314 1 12.635 1.805 10.83
315 1 10.83 1.805 12.635
316 1 12.635 0.0 12.635
317 1 10.83 0.0 14.44
318 1 12.635 1.805 14.44
319 1 10.83 1.805 16.245
320 1 12.635 0.0 16.245
321 1 10.83 3.61 0.0
322 1 12.635 5.415 0.0
323 1 10.83 5.415 1.805
324 1 12.635 3.61 1.805
325 1 10.83 3.61 3.61
326 1 12.635 5.415 3.61
327 1 10.83 5.415 5.415
328 1 12.635 3.61 5.415
329 1 10.83 3.61 7.22
330 1 12.635 5.415 7.22
331 1 10.83 5.415 9.025
332 1 12.635 3.61 9.025
333 1 10.83 3.61 10.83
334 1 12.635 5.415 10.83
335 1 10.83 5.415 12.635
336 1 12.635 3.61 12.635
337 1 10.83 3.61 14.44
338 1 12.635 5.415 14.44
339 1 10.83 5.415 16.245
340 1 12.635 3.61 16.245
341 1 10.83 7.22 0.0
342 1 12.635 9.025 0.0
343 1 10.83 9.025 1.805
344 1 12.635 7.22 1.805
345 1 10.83 7.22 3.61
346 1 12.635 9.025 3.61
347 1 10.83 9.025 5.415
348 1 12.635 7.22 5.415
349 1 10.83 7.22 7.22
350 1 12.635 9.025 7.22
351 1 10.83 9.025 9.025
352 1 12.635 7.22 9.025
353 1 10.83 7.22 10.83
354 1 12.635 9.025 10.83
355 1 10.83 9.025 12.635
356 1 12.635 7.22 12.635
357 1 10.83 7.22 14.44
358 1 12.635 9.025 14.44
359 1 10.83 9.025 16.245
360 1 12.635 7.22 16.245
361 1 10.83 10.83 0.0
362 1 12.635 12.635 0.0
363 1 10.83 12.635 1.805
364 1 12.635 10.83 1.805
365 1 10.83 10.83 3.61
366 1 12.635 12.635 3.61
367 1 10.83 12.635 5.415
368 1 12.635 10.83 5.415
369 1 10.83 10.83 7.22
370 1 12.635 12.635 7.22
371 1 10.83 12.635 9.025
372 1 12.635 10.83 9.025
373 1 10.83 10.83 10.83
374 1 12.635 12.635 10.83
375 1 10.83 12.635 12.635
376 1 12.635 10.83 12.635
377 1 10.83 10.83 14.44
378 1 12.635 12.635 14.44
379 1 10.83 12.635 16.245
380 1 12.635 10.83 16.245
381 1 10.83 14.44 0.0
382 1 12.635 16.245 0.0
383 1 10.83 16.245 1.805
384 1 12.635 14.44 1.805
385 1 10.83 14.44 3.61
386 1 12.635 16.245 3.61
387 1 10.83 16.245 5.415
388 1 12.635 14.44 5.415
389 1 10.83 14.44 7.22
390 1 12.635 16.245 7.22
391 1 10.83 16.245 9.025
392 1 12.635 14.44 9.025
393 1 10.83 14.44 10.83
394 1 12.635 16.245 10.83
395 1 10.83 16.245 12.635
396 1 12.635 14.44 12.635
397 1 10.83 14.44 14.44
398 1 12.635 16.245 14.44
399 1 10.83 16.245 16.245
400 1 12.635 14.44 16.245
401 1 14.44 0.0 0.0
402 1 16.245 1.805 0.0
403 1 14.44 1.805 1.805
404 1 16.245 0.0 1.805
405 1 14.44 0.0 3.61
406 1 16.245 1.805 3.61
407 1 14.44 1.805 5.415
408 1 16.245 0.0 5.415
409 1 14.44 0.0 7.22
410 1 16.245 1.805 7.22
411 1 14.44 1.805 9.025
412 1 16.245 0.0 9.025
413 1 14.44 0.0 10.83
414 1 16.245 1.805 10.83
415 1 14.44 1.805 12.635
416 1 16.245 0.0 12.635
417 1 14.44 0.0 14.44
418 1 16.245 1.805 14.44
419 1 14.44 1.805 16.245
420 1 16.245 0.0 16.245
421 1 14.44 3.61 0.0
422 1 16.245 5.415 0.0
423 1 14.44 5.415 1.805
424 1 16.245 3.61 1.805
425 1 14.44 3.61 3.61
426 1 16.245 5.415 3.61
427 1 14.44 5.415 5.415
428 1 16.245 3.61 5.415
429 1 14.44 3.61 7.22
430 1 16.245 5.415 7.22
431 1 14.44 5.415 9.025
432 1 16.245 3.61 9.025
433 1 14.44 3.61 10.83
434 1 16.245 5.415 10.83
435 1 14.44 5.415 12.635
436 1 16.245 3.61 12.635
437 1 14.44 3.61 14.44
438 1 16.245 5.415 14.44
439 1 14.44 5.415 16.245
440 1 16.245 3.61 16.245
441 1 14.44 7.22 0.0
442 1 16.245 9.025 0.0
443 1 14.44 9.025 1.805
444 1 16.245 7.22 1.805
445 1 14.44 7.22 3.61
446 1 16.245 9.025 3.61
447 1 14.44 9.025 5.415
448 1 16.245 7.22 5.415
449 1 14.44 7.22 7.22
450 1 16.245 9.025 7.22
451 1 14.44 9.025 9.025
452 1 16.245 7.22 9.025
453 1 14.44 7.22 10.83
454 1 16.245 9.025 10.83
455 1 14.44 9.025 12.635
456 1 16.245 7.22 12.635
457 1 14.44 7.22 14.44
458 1 16.245 9.025 14.44
459 1 14.44 9.025 16.245
460 1 16.245 7.22 16.245
461 1 14.44 10.83 0.0
462 1 16.245 12.635 0.0
463 1 14.44 12.635 1.805
464 1 16.245 10.83 1.805
465 1 14.44 10.83 3.61
466 1 16.245 12.635 3.61
467 1 14.44 12.635 5.415
468 1 16.245 10.83 5.415
469 1 14.44 10.83 7.22
470 1 16.245 12.635 7.22
471 1 14.44 12.635 9.025
472 1 16.245 10.83 9.025
473 1 14.44 10.83 10.83
474 1 16.245 12.635 10.83
475 1 14.44 12.635 12.635
476 1 16.245 10.83 12.635
477 1 14.44 10.83 14.44
478 1 16.245 12.635 14.44
479 1 14.44 12.635 16.245
480 1 16.245 10.83 16.245
481 1 14.44 14.44 0.0
482 1 16.245 16.245 0.0
483 1 14.44 16.245 1.805
484 1 16.245 14.44 1.805
485 1 14.44 14.44 3.61
486 1 16.245 16.245 3.61
487 1 14.44 16.245 5.415
488 1 16.245 14.44 5.415
489 1 14.44 14.44 7.22
490 1 16.245 16.245 7.22
491 1 14.44 16.245 9.025
492 1 16.245 14.44 9.025
493 1 14.44 14.44 10.83
494 1 16.245 16.245 10.83
495 1 14.44 16.245 12.635
496 1 16.245 14.44 12.635
497 1 14.44 14.44 14.44
498 1 16.245 16.245 14.44
499 1 14.44 16.245 16.245
500 1 16.245 14.44 16.245
501 1 18.05 0.0 0.0
502 1 19.855 1.805 0.0
503 1 18.05 1.805 1.805
504 1 19.855 0.0 1.805
505 1 18.05 0.0 3.61
506 1 19.855 1.805 3.61
507 1 18.05 1.805 5.415
508 1 19.855 0.0 5.415
509 1 18.05 0.0 7.22
510 1 19.855 1.805 7.22
511 1 18.05 1.805 9.025
512 1 19.855 0.0 9.025
513 1 18.05 0.0 10.83
514 1 19.855 1.805 10.83
515 1 18.05 1.805 12.635
516 1 19.855 0.0 12.635
517 1 18.05 0.0 14.44
518 1 19.855 1.805 14.44
519 1 18.05 1.805 16.245
520 1 19.855 0.0 16.245
521 1 18.05 3.61 0.0
522 1 19.855 5.415 0.0
523 1 18.05 5.415 1.805
524 1 19.855 3.61 1.805
525 1 18.05 3.61 3.61
526 1 19.855 5.415 3.61
527 1 18.05 5.415 5.415
528 1 19.855 3.61 5.415
529 1 18.05 3.61 7.22
530 1 19.855 5.415 7.22
531 1 18.05 5.415 9.025
532 1 19.855 3.61 9.025
533 1 18.05 3.61 10.83
534 1 19.855 5.415 10.83
535 1 18.05 5.415 12.635
536 1 19.855 3.61 12.635
537 1 18.05 3.61 14.44
538 1 19.855 5.415 14.44
539 1 18.05 5.415 16.245
540 1 19.855 3.61 16.245
541 1 18.05 7.22 0.0
542 1 19.855 9.025 0.0
543 1 18.05 9.025 1.805
544 1 19.855 7.22 1.805
545 1 18.05 7.22 3.61
546 1 19.855 9.025 3.61
547 1 18.05 9.025 5.415
548 1 19.855 7.22 5.415
549 1 18.05 7.22 7.22
550 1 19.855 9.025 7.22
551 1 18.05 9.025 9.025
552 1 19.855 7.22 9.025
553 1 18.05 7.22 10.83
554 1 19.855 9.025 10.83
555 1 18.05 9.025 12.635
556 1 19.855 7.22 12.635
557 1 18.05 7.22 14.44
558 1 19.855 9.025 14.44
559 1 18.05 9.025 16.245
560 1 19.855 7.22 16.245
561 1 18.05 10.83 0.0
562 1 19.855 12.635 0.0
563 1 18.05 12.635 1.805
564 1 19.855 10.83 1.805
565 1 18.05 10.83 3.61
566 1 19.855 12.635 3.61
567 1 18.05 12.635 5.415
568 1 19.855 10.83 5.415
569 1 18.05 10.83 7.22
570 1 19.855 12.635 7.22
571 1 18.05 12.635 9.025
572 1 19.855 10.83 9.025
573 1 18.05 10.83 10.83
574 1 19.855 12.635 10.83
575 1 18.05 12.635 12.635
576 1 19.855 10.83 12.635
577 1 18.05 10.83 14.44
578 1 19.855 12.635 14.44
579 1 18.05 12.635 16.245
580 1 19.855 10.83 16.245
581 1 18.05 14.44 0.0
582 1 19.855 16.245 0.0
583 1 18.05 16.245 1.805
584 1 19.855 14.44 1.805
585 1 18.05 14.44 3.61
586 1 19.855 16.245 3.61
587 1 18.05 16.245 5.415
588 1 19.855 14.44 5.415
589 1 18.05 14.44 7.22
590 1 19.855 16.245 7.22
591 1 18.05 16.245 9.025
592 1 19.855 14.44 9.025
593 1 18.05 14.44 10.83
594 1 19.855 16.245 10.83
595 1 18.05 16.245 12.635
596 1 19.855 14.44 12.635
597 1 18.05 14.44 14.44
598 1 19.855 16.245 14.44
599 1 18.05 16.245 16.245
600 1 19.855 14.44 16.245
601 1 21.66 0.0 0.0
602 1 23.465 1.805 0.0
603 1 21.66 1.805 1.805
604 1 23.465 0.0 1.805
605 1 21.66 0.0 3.61
606 1 23.465 1.805 3.61
607 1 21.66 1.805 5.415
608 1 23.465 0.0 5.415
609 1 21.66 0.0 7.22
610 1 23.465 1.805 7.22
611 1 21.66 1.805 9.025
612 1 23.465 0.0 9.025
613 1 21.66 0.0 10.83
614 1 23.465 1.805 10.83
615 1 21.66 1.805 12.635
616 1 23.465 0.0 12.635
617 1 21.66 0.0 14.44
618 1 23.465 1.805 14.44
619 1 21.66 1.805 16.245
620 1 23.465 0.0 16.245
621 1 21.66 3.61 0.0
622 1 23.465 5.415 0.0
623 1 21.66 5.415 1.805
624 1 23.465 3.61 1.805
625 1 21.66 3.61 3.61
626 1 23.465 5.415 3.61
627 1 21.66 5.415 5.415
628 1 23.465 3.61 5.415
629 1 21.66 3.61 7.22
630 1 23.465 5.415 7.22
631 1 21.66 5.415 9.025
632 1 23.465 3.61 9.025
633 1 21.66 3.61 10.83
634 1 23.465 5.415 10.83
635 1 21.66 5.415 12.635
636 1 23.465 3.61 12.635
637 1 21.66 3.61 14.44
638 1 23.465 5.415 14.44
639 1 21.66 5.415 16.245
640 1 23.465 3.61 16.245
641 1 21.66 7.22 0.0
642 1 23.465 9.025 0.0
643 1 21.66 9.025 1.805
644 1 23.465 7.22 1.805
645 1 21.66 7.22 3.61
646 1 23.465 9.025 3.61
647 1 21.66 9.025 5.415
648 1 23.465 7.22 5.415
649 1 21.66 7.22 7.22
650 1 23.465 9.025 7.22
651 1 21.66 9.025 9.025
652 1 23.465 7.22 9.025
653 1 21.66 7.22 10.83
654 1 23.465 9.025 10.83
655 1 21.66 9.025 12.635
656 1 23.465 7.22 12.635
657 1 21.66 7.22 14.44
658 1 23.465 9.025 14.44
659 1 21.66 9.025 16.245
660 1 23.465 7.22 16.245
661 1 21.66 10.83 0.0
662 1 23.465 12.635 0.0
663 1 21.66 12.635 1.805
664 1 23.465 10.83 1.805
665 1 21.66 10.83 3.61
666 1 23.465 12.635 3.61
667 1 21.66 12.635 5.415
668 1 23.465 10.83 5.415
669 1 21.66 10.83 7.22
670 1 23.465 12.635 7.22
671 1 21.66 12.635 9.025
672 1 23.465 10.83 9.025
673 1 21.66 10.83 10.83
674 1 23.465 12.635 10.83
675 1 21.66 12.635 12.635
676 1 23.465 10.83 12.635
677 1 21.66 10.83 14.44
678 1 23.465 12.635 14.44
679 1 21.66 12.635 16.245
680 1 23.465 10.83 16.245
681 1 21.66 14.44 0.0
682 1 23.465 16.245 0.0
683 1 21.66 16.245 1.805
684 1 23.465 14.44 1.805
685 1 21.66 14.44 3.61
686 1 23.465 16.245 3.61
687 1 21.66 16.245 5.415
688 1 23.465 14.44 5.415
689 1 21.66 14.44 7.22
690 1 23.465 16.245 7.22
691 1 21.66 16.245 9.025
692 1 23.465 14.44 9.025
693 1 21.66 14.44 10.83
694 1 23.465 16.245 10.83
695 1 21.66 16.245 12.635
696 1 23.465 14.44 12.635
697 1 21.66 14.44 14.44
698 1 23.465 16.245 14.44
699 1 21.66 16.245 16.245
700 1 23.465 14.44 16.245
701 1 25.27 0.0 0.0
702 1 27.075 1.805 0.0
703 1 25.27 1.805 1.805
704 1 27.075 0.0 1.805
705 1 25.27 0.0 3.61
706 1 27.075 1.805 3.61
707 1 25.27 1.805 5.415
708 1 27.075 0.0 5.415
709 1 25.27 0.0 7.22
710 1 27.075 1.805 7.22
711 1 25.27 1.805 9.025
712 1 27.075 0.0 9.025
713 1 25.27 0.0 10.83
714 1 27.075 1.805 10.83
715 1 25.27 1.805 12.635
716 1 27.075 0.0 12.635
717 1 25.27 0.0 14.44
718 1 27.075 1.805 14.44
719 1 25.27 1.805 16.245
720 1 27.075 0.0 16.245
721 1 25.27 3.61 0.0
722 1 27.075 5.415 0.0
723 1 25.27 5.415 1.805
724 1 27.075 3.61 1.805
725 1 25.27 3.61 3.61
726 1 27.075 5.415 3.61
727 1 25.27 5.415 5.415
728 1 27.075 3.61 5.415
729 1 25.27 3.61 7.22
730 1 27.075 5.415 7.22
731 1 25.27 5.415 9.025
732 1 27.075 3.61 9.025
733 1 25.27 3.61 10.83
734 1 27.075 5.415 10.83
735 1 25.27 5.415 12.635
736 1 27.075 3.61 12.635
737 1 25.27 3.61 14.44
738 1 27.075 5.415 14.44
739 1 25.27 5.415 16.245
740 1 27.075 3.61 16.245
741 1 25.27 7.22 0.0
742 1 27.075 9.025 0.0
743 1 25.27 9.025 1.805
744 1 27.075 7.22 1.805
745 1 25.27 7.22 3.61
746 1 27.075 9.025 3.61
747 1 25.27 9.025 5.415
748 1 27.075 7.22 5.415
749 1 25.27 7.22 7.22
750 1 27.075 9.025 7.22
751 1 25.27 9.025 9.025
752 1 27.075 7.22 9.025
753 1 25.27 7.22 10.83
754 1 27.075 9.025 10.83
755 1 25.27 9.025 12.635
756 1 27.075 7.22 12.635
757 1 25.27 7.22 14.44
758 1 27.075 9.025 14.44
759 1 25.27 9.025 16.245
760 1 27.075 7.22 16.245
761 1 25.27 10.83 0.0
762 1 27.075 12.635 0.0
763 1 25.27 12.635 1.805
764 1 27.075 10.83 1.805
765 1 25.27 10.83 3.61
766 1 27.075 12.635 3.61
767 1 25.27 12.635 5.415
768 1 27.075 10.83 5.415
769 1 25.27 10.83 7.22
770 1 27.075 12.635 7.22
771 1 25.27 12.635 9.025
772 1 27.075 10.83 9.025
773 1 25.27 10.83 10.83
774 1 27.075 12.635 10.83
775 1 25.27 12.635 12.635
776 1 27.075 10.83 12.635
777 1 25.27 10.83 14.44
778 1 27.075 12.635 14.44
779 1 25.27 12.635 16.245
780 1 27.075 10.83 16.245
781 1 25.27 14.44 0.0
782 1 27.075 16.245 0.0
783 1 25.27 16.245 1.805
784 1 27.075 14.44 1.805
785 1 25.27 14.44 3.61
786 1 27.075 16.245 3.61
787 1 25.27 16.245 5.415
788 1 27.075 14.44 5.415
789 1 25.27 14.44 7.22
790 1 27.075 16.245 7.22
791 1 25.27 16.245 9.025
792 1 27.075 14.44 9.025
793 1 25.27 14.44 10.83
794 1 27.075 16.245 10.83
795 1 25.27 16.245 12.635
796 1 27.075 14.44 12.635
797 1 25.27 14.44 14.44
798 1 27.075 16.245 14.44
799 1 25.27 16.245 16.245
800 1 27.075 14.44 16.245
801 1 28.88 0.0 0.0
802 1 30.685 1.805 0.0
803 1 28.88 1.805 1.805
804 1 30.685 0.0 1.805
805 1 28.88 0.0 3.61
806 1 30.685 1.805 3.61
807 1 28.88 1.805 5.415
808 1 30.685 0.0 5.415
809 1 28.88 0.0 7.22
810 1 30.685 1.805 7.22
811 1 28.88 1.805 9.025
812 1 30.685 0.0 9.025
813 1 28.88 0.0 10.83
814 1 30.685 1.805 10.83
815 1 28.88 1.805 12.635
816 1 30.685 0.0 12.635
817 1 28.88 0.0 14.44
818 1 30.685 1.805 14.44
819 1 28.88 1.805 16.245
820 1 30.685 0.0 16.245
821 1 28.88 3.61 0.0
822 1 30.685 5.415 0.0
823 1 28.88 5.415 1.805
824 1 30.685 3.61 1.805
825 1 28.88 3.61 3.61
826 1 30.685 5.415 3.61
827 1 28.88 5.415 5.415
828 1 30.685 3.61 5.415
829 1 28.88 3.61 7.22
830 1 30.685 5.415 7.22
831 1 28.88 5.415 9.025
832 1 30.685 3.61 9.025
833 1 28.88 3.61 10.83
834 1 30.685 5.415 10.83
835 1 28.88 5.415 12.635
836 1 30.685 3.61 12.635
837 1 28.88 3.61 14.44
838 1 30.685 5.415 14.44
839 1 28.88 5.415 16.245
840 1 30.685 3.61 16.245
841 1 28.88 7.22 0.0
842 1 30.685 9.025 0.0
843 1 28.88 9.025 1.805
844 1 30.685 7.22 1.805
845 1 28.88 7.22 3.61
846 1 30.685 9.025 3.61
847 1 28.88 9.025 5.415
848 1 30.685 7.22 5.415
849 1 28.88 7.22 7.22
850 1 30.685 9.025 7.22
851 1 28.88 9.025 9.025
852 1 30.685 7.22 9.025
853 1 28.88 7.22 10.83
854 1 30.685 9.025 10.83
855 1 28.88 9.025 12.635
856 1 30.685 7.22 12.635
857 1 28.88 7.22 14.44
858 1 30.685 9.025 14.44
859 1 28.88 9.025 16.245
860 1 30.685 7.22 16.245
861 1 28.88 10.83 0.0
862 1 30.685 12.635 0.0
863 1 28.88 12.635 1.805
864 1 30.685 10.83 1.805
865 1 28.88 10.83 3.61
866 1 30.685 12.635 3.61
867 1 28.88 12.635 5.415
868 1 30.685 10.83 5.415
869 1 28.88 10.83 7.22
870 1 30.685 12.635 7.22
871 1 28.88 12.635 9.025
872 1 30.685 10.83 9.025
873 1 28.88 10.83 10.83
874 1 30.685 12.635 10.83
875 1 28.88 12.635 12.635
876 1 30.685 10.83 12.635
877 1 28.88 10.83 14.44
878 1 30.685 12.635 14.44
879 1 28.88 12.635 16.245
880 1 30.685 10.83 16.245
881 1 28.88 14.44 0.0
882 1 30.685 16.245 0.0
883 1 28.88 16.245 1.805
884 1 30.685 14.44 1.805
885 1 28.88 14.44 3.61
886 1 30.685 16.245 3.61
887 1 28.88 16.245 5.415
888 1 30.685 14.44 5.415
889 1 28.88 14.44 7.22
890 1 30.685 16.245 7.22
891 1 28.88 16.245 9.025
892 1 30.685 14.44 9.025
893 1 28.88 14.44 10.83
894 1 30.685 16.245 10.83
895 1 28.88 16.245 12.635
896 1 30.685 14.44 12.635
897 1 28.88 14.44 14.44
898 1 30.685 16.245 14.44
899 1 28.88 16.245 16.245
900 1 30.685 14.44 16.245
901 1 32.49 0.0 0.0
902 1 34.295 1.805 0.0
903 1 32.49 1.805 1.805
904 1 34.295 0.0 1.805
905 1 32.49 0.0 3.61
906 1 34.295 1.805 3.61
907 1 32.49 1.805 5.415
908 1 34.295 0.0 5.415
909 1 32.49 0.0 7.22
910 1 34.295 1.805 7.22
911 1 32.49 1.805 9.025
912 1 34.295 0.0 9.025
913 1 32.49 0.0 10.83
914 1 34.295 1.805 10.83
915 1 32.49 1.805 12.635
916 1 34.295 0.0 12.635
917 1 32.49 0.0 14.44
918 1 34.295 1.805 14.44
919 1 32.49 1.805 16.245
920 1 34.295 0.0 16.245
921 1 32.49 3.61 0.0
922 1 34.295 5.415 0.0
923 1 32.49 5.415 1.805
924 1 34.295 3.61 1.805
925 1 32.49 3.61 3.61
926 1 34.295 5.415 3.61
927 1 32.49 5.415 5.415
928 1 34.295 3.61 5.415
929 1 32.49 3.61 7.22
930 1 34.295 5.415 7.22
931 1 32.49 5.415 9.025
932 1 34.295 3.61 9.025
933 1 32.49 3.61 10.83
934 1 34.295 5.415 10.83
935 1 32.49 5.415 12.635
936 1 34.295 3.61 12.635
937 1 32.49 3.61 14.44
938 1 34.295 5.415 14.44
939 1 32.49 5.415 16.245
940 1 34.295 3.61 16.245
941 1 32.49 7.22 0.0
942 1 34.295 9.025 0.0
943 1 32.49 9.025 1.805
944 1 34.295 7.22 1.805
945 1 32.49 7.22 3.61
946 1 34.295 9.025 3.61
947 1 32.49 9.025 5.415
948 1 34.295 7.22 5.415
949 1 32.49 7.22 7.22
950 1 34.295 9.025 7.22
951 1 32.49 9.025 9.025
952 1 34.295 7.22 9.025
953 1 32.49 7.22 10.83
954 1 34.295 9.025 10.83
955 1 32.49 9.025 12.635
956 1 34.295 7.22 12.635
957 1 32.49 7.22 14.44
958 1 34.295 9.025 14.44
959 1 32.49 9.025 16.245
960 1 34.295 7.22 16.245
961 1 32.49 10.83 0.0
962 1 34.295 12.635 0.0
963 1 32.49 12.635 1.805
964 1 34.295 10.83 1.805
965 1 32.49 10.83 3.61
966 1 34.295 12.635 3.61
967 1 32.49 12.635 5.415
968 1 34.295 10.83 5.415
969 1 32.49 10.83 7.22
970 1 34.295 12.635 7.22
971 1 32.49 12.635 9.025
972 1 34.295 10.83 9.025
973 1 32.49 10.83 10.83
974 1 34.295 12.635 10.83
975 1 32.49 12.635 12.635
976 1 34.295 10.83 12.635
977 1 32.49 10.83 14.44
978 1 34.295 12.635 14.44
979 1 32.49 12.635 16.245
980 1 34.295 10.83 16.245
981 1 32.49 14.44 0.0
982 1 34.295 16.245 0.0
983 1 32.49 16.245 1.805
984 1 34.295 14.44 1.805
985 1 32.49 14.44 3.61
986 1 34.295 16.245 3.61
987 1 32.49 16.245 5.415
988 1 34.295 14.44 5.415
989 1 32.49 14.44 7.22
990 1 34.295 16.245 7.22
991 1 32.49 16.245 9.025
992 1 34.295 14.44 9.025
993 1 32.49 14.44 10.83
994 1 34.295 16.245 10.83
995 1 32.49 16.245 12.635
996 1 34.295 14.44 12.635
997 1 32.49 14.44 14.44
998 1 34.295 16.245 14.44
999 1 32.49 16.245 16.245
1000 1 34.295 14.44 16.245
1001 1 36.1 0.0 0.0
1002 1 37.905 1.805 0.0
1003 1 36.1 1.805 1.805
1004 1 37.905 0.0 1.805
1005 1 36.1 0.0 3.61
1006 1 37.905 1.805 3.61
1007 1 36.1 1.805 5.415
1008 1 37.905 0.0 5.415
1009 1 36.1 0.0 7.22
1010 1 37.905 1.805 7.22
1011 1 36.1 1.805 9.025
1012 1 37.905 0.0 9.025
1013 1 36.1 0.0 10.83
1014 1 37.905 1.805 10.83
1015 1 36.1 1.805 12.635
1016 1 37.905 0.0 12.635
1017 1 36.1 0.0 14.44
1018 1 37.905 1.805 14.44
1019 1 36.1 1.805 16.245
1020 1 37.905 0.0 16.245
1021 1 36.1 3.61 0.0
1022 1 37.905 5.415 0.0
1023 1 36.1 5.415 1.805
1024 1 37.905 3.61 1.805
1025 1 36.1 3.61 3.61
1026 1 37.905 5.415 3.61
1027 1 36.1 5.415 5.415
1028 1 37.905 3.61 5.415
1029 1 36.1 3.61 7.22
1030 1 37.905 5.415 7.22
1031 1 36.1 5.415 9.025
1032 1 37.905 3.61 9.025
1033 1 36.1 3.61 10.83
1034 1 37.905 5.415 10.83
1035 1 36.1 5.415 12.635
1036 1 37.905 3.61 12.635
1037 1 36.1 3.61 14.44
1038 1 37.905 5.415 14.44
1039 1 36.1 5.415 16.245
1040 1 37.905 3.61 16.245
1041 1 36.1 7.22 0.0
1042 1 37.905 9.025 0.0
1043 1 36.1 9.025 1.805
1044 1 37.905 7.22 1.805
1045 1 36.1 7.22 3.61
1046 1 37.905 9.025 3.61
1047 1 36.1 9.025 5.415
1048 1 37.905 7.22 5.415
1049 1 36.1 7.22 7.22
1050 1 37.905 9.025 7.22
1051 1 36.1 9.025 9.025
1052 1 37.905 7.22 9.025
1053 1 36.1 7.22 10.83
1054 1 37.905 9.025 10.83
1055 1 36.1 9.025 12.635
1056 1 37.905 7.22 12.635
1057 1 36.1 7.22 14.44
1058 1 37.905 9.025 14.44
1059 1 36.1 9.025 16.245
1060 1 37.905 7.22 16.245
1061 1 36.1 10.83 0.0
1062 1 37.905 12.635 0.0
1063 1 36.1 12.635 1.805
1064 1 37.905 10.83 1.805
1065 1 36.1 10.83 3.61
1066 1 37.905 12.635 3.61
1067 1 36.1 12.635 5.415
1068 1 37.905 10.83 5.415
1069 1 36.1 10.83 7.22
1070 1 37.905 12.635 7.22
1071 1 36.1 12.635 9.025
1072 1 37.905 10.83 9.025
1073 1 36.1 10.83 10.83
1074 1 37.905 12.635 10.83
1075 1 36.1 12.635 12.635
1076 1 37.905 10.83 12.635
1077 1 36.1 10.83 14.44
1078 1 37.905 12.635 14.44
1079 1 36.1 12.635 16.245
1080 1 37.905 10.83 16.245
1081 1 36.1 14.44 0.0
1082 1 37.905 16.245 0.0
1083 1 36.1 16.245 1.805
1084 1 37.905 14.44 1.805
1085 1 36.1 14.44 3.61
1086 1 37.905 16.245 3.61
1087 1 36.1 16.245 5.415
1088 1 37.905 14.44 5.415
1089 1 36.1 14.44 7.22
1090 1 37.905 16.245 7.22
1091 1 36.1 16.245 9.025
1092 1 37.905 14.44 9.025
1093 1 36.1 14.44 10.83
1094 1 37.905 16.245 10.83
1095 1 36.1 16.245 12.635
1096 1 37.905 14.44 12.635
1097 1 36.1 14.44 14.44
1098 1 37.905 16.245 14.44
1099 1 36.1 16.245 16.245
1100 1 37.905 14.44 16.245
1101 1 39.71 0.0 0.0
1102 1 41.515 1.805 0.0
1103 1 39.71 1.805 1.805
1104 1 41.515 0.0 1.805
1105 1 39.71 0.0 3.61
1106 1 41.515 1.805 3.61
1107 1 39.71 1.805 5.415
1108 1 41.515 0.0 5.415
1109 1 39.71 0.0 7.22
1110 1 41.515 1.805 7.22
1111 1 39.71 1.805 9.025
1112 1 41.515 0.0 9.025
1113 1 39.71 0.0 10.83
1114 1 41.515 1.805 10.83
1115 1 39.71 1.805 12.635
1116 1 41.515 0.0 12.635
1117 1 39.71 0.0 14.44
1118 1 41.515 1.805 14.44
1119 1 39.71 1.805 16.245
1120 1 41.515 0.0 16.245
1121 1 39.71 3.61 0.0
1122 1 41.515 5.415 0.0
1123 1 39.71 5.415 1.805
1124 1 41.515 3.61 1.805
1125 1 39.71 3.61 3.61
1126 1 41.515 5.415 3.61
1127 1 39.71 5.415 5.415
1128 1 41.515 3.61 5.415
1129 1 39.71 3.61 7.22
1130 1 41.515 5.415 7.22
1131 1 39.71 5.415 9.025
1132 1 41.515 3.61 9.025
1133 1 39.71 3.61 10.83
1134 1 41.515 5.415 10.83
1135 1 39.71 5.415 12.635
1136 1 41.515 3.61 12.635
1137 1 39.71 3.61 14.44
1138 1 41.515 5.415 14.44
1139 1 39.71 5.415 16.245
1140 1 41.515 3.61 16.245
1141 1 39.71 7.22 0.0
1142 1 41.515 9.025 0.0
1143 1 39.71 9.025 1.805
1144 1 41.515 7.22 1.805
1145 1 39.71 7.22 3.61
1146 1 41.515 9.025 3.61
1147 1 39.71 9.025 5.415
1148 1 41.515 7.22 5.415
1149 1 39.71 7.22 7.22
1150 1 41.515 9.025 7.22
1151 1 39.71 9.025 9.025
1152 1 41.515 7.22 9.025
1153 1 39.71 7.22 10.83
1154 1 41.515 9.025 10.83
1155 1 39.71 9.025 12.635
1156 1 41.515 7.22 12.635
1157 1 39.71 7.22 14.44
1158 1 41.515 9.025 14.44
1159 1 39.71 9.025 16.245
1160 1 41.515 7.22 16.245
1161 1 39.71 10.83 0.0
1162 1 41.515 12.635 0.0
1163 1 39.71 12.635 1.805
1164 1 41.515 10.83 1.805
1165 1 39.71 10.83 3.61
1166 1 41.515 12.635 3.61
1167 1 39.71 12.635 5.415
1168 1 41.515 10.83 5.415
1169 1 39.71 10.83 7.22
1170 1 41.515 12.635 7.22
1171 1 39.71 12.635 9.025
1172 1 41.515 10.83 9.025
1173 1 39.71 10.83 10.83
1174 1 41.515 12.635 10.83
1175 1 39.71 12.635 12.635
1176 1 41.515 10.83 12.635
1177 1 39.71 10.83 14.44
1178 1 41.515 12.635 14.44
1179 1 39.71 12.635 16.245
1180 1 41.515 10.83 16.245
1181 1 39.71 14.44 0.0
1182 1 41.515 16.245 0.0
1183 1 39.71 16.245 1.805
1184 1 41.515 14.44 1.805
1185 1 39.71 14.44 3.61
1186 1 41.515 16.245 3.61
1187 1 39.71 16.245 5.415
1188 1 41.515 14.44 5.415
1189 1 39.71 14.44 7.22
1190 1 41.515 16.245 7.22
1191 1 39.71 16.245 9.025
1192 1 41.515 14.44 9.025
1193 1 39.71 14.44 10.83
1194 1 41.515 16.245 10.83
1195 1 39.71 16.245 12.635
1196 1 41.515 14.44 12.635
1197 1 39.71 14.44 14.44
1198 1 41.515 16.245 14.44
1199 1 39.71 16.245 16.245
1200 1 41.515 14.44 16.245
1201 1 43.32 0.0 0.0
1202 1 45.125 1.805 0.0
1203 1 43.32 1.805 1.805
1204 1 45.125 0.0 1.805
1205 1 43.32 0.0 3.61
1206 1 45.125 1.805 3.61
1207 1 43.32 1.805 5.415
1208 1 45.125 0.0 5.415
1209 1 43.32 0.0 7.22
1210 1 45.125 1.805 7.22
1211 1 43.32 1.805 9.025
1212 1 45.125 0.0 9.025
1213 1 43.32 0.0 10.83
1214 1 45.125 1.805 10.83
1215 1 43.32 1.805 12.635
1216 1 45.125 0.0 12.635
1217 1 43.32 0.0 14.44
1218 1 45.125 1.805 14.44
1219 1 43.32 1.805 16.245
1220 1 45.125 0.0 16.245
1221 1 43.32 3.61 0.0
1222 1 45.125 5.415 0.0
1223 1 43.32 5.415 1.805
1224 1 45.125 3.61 1.805
1225 1 43.32 3.61 3.61
1226 1 45.125 5.415 3.61
1227 1 43.32 5.415 5.415
1228 1 45.125 3.61 5.415
1229 1 43.32 3.61 7.22
1230 1 45.125 5.415 7.22
1231 1 43.32 5.415 9.025
1232 1 45.125 3.61 9.025
1233 1 43.32 3.61 10.83
1234 1 45.125 5.415 10.83
1235 1 43.32 5.415 12.635
1236 1 45.125 3.61 12.635
1237 1 43.32 3.61 14.44
1238 1 45.125 5.415 14.44
1239 1 43.32 5.415 16.245
1240 1 45.125 3.61 16.245
1241 1 43.32 7.22 0.0
1242 1 45.125 9.025 0.0
1243 1 43.32 9.025 1.805
1244 1 45.125 7.22 1.805
1245 1 43.32 7.22 3.61
1246 1 45.125 9.025 3.61
1247 1 43.32 9.025 5.415
1248 1 45.125 7.22 5.415
1249 1 43.32 7.22 7.22
1250 1 45.125 9.025 7.22
1251 1 43.32 9.025 9.025