LAMMPS Description

180 atoms
1 atom types

0.0 28.700000000000003 xlo xhi
0.0 8.61 ylo yhi
0.0 8.61 zlo zhi

Masses

1 55.85

Atoms # atomic

1 1 0.0 0.0 0.0
2 1 1.435 1.435 1.435
3 1 0.0 0.0 2.87
4 1 1.435 1.435 4.305
5 1 0.0 0.0 5.74
6 1 1.435 1.435 7.175000000000001
7 1 0.0 2.87 0.0
8 1 1.435 4.305 1.435
9 1 0.0 2.87 2.87
10 1 1.435 4.305 4.305
11 1 0.0 2.87 5.74
12 1 1.435 4.305 7.175000000000001
13 1 0.0 5.74 0.0
14 1 1.435 7.175000000000001 1.435
15 1 0.0 5.74 2.87
16 1 1.435 7.175000000000001 4.305
17 1 0.0 5.74 5.74
18 1 1.435 7.175000000000001 7.175000000000001
19 1 2.87 0.0 0.0
20 1 4.305 1.435 1.435
21 1 2.87 0.0 2.87
22 1 4.305 1.435 4.305
23 1 2.87 0.0 5.74
24 1 4.305 1.435 7.175000000000001
25 1 2.87 2.87 0.0
26 1 4.305 4.305 1.435
27 1 2.87 2.87 2.87
28 1 4.305 4.305 4.305
29 1 2.87 2.87 5.74
30 1 4.305 4.305 7.175000000000001
31 1 2.87 5.74 0.0
32 1 4.305 7.175000000000001 1.435
33 1 2.87 5.74 2.87
34 1 4.305 7.175000000000001 4.305
35 1 2.87 5.74 5.74
36 1 4.305 7.175000000000001 7.175000000000001
37 1 5.74 0.0 0.0
38 1 7.175000000000001 1.435 1.435
39 1 5.74 0.0 2.87
40 1 7.175000000000001 1.435 4.305
41 1 5.74 0.0 5.74
42 1 7.175000000000001 1.435 7.175000000000001
43 1 5.74 2.87 0.0
44 1 7.175000000000001 4.305 1.435
45 1 5.74 2.87 2.87
46 1 7.175000000000001 4.305 4.305
47 1 5.74 2.87 5.74
48 1 7.175000000000001 4.305 7.175000000000001
49 1 5.74 5.74 0.0
50 1 7.175000000000001 7.175000000000001 1.435
51 1 5.74 5.74 2.87
52 1 7.175000000000001 7.175000000000001 4.305
53 1 5.74 5.74 5.74
54 1 7.175000000000001 7.175000000000001 7.175000000000001
55 1 8.61 0.0 0.0
56 1 10.045 1.435 1.435
57 1 8.61 0.0 2.87
58 1 10.045 1.435 4.305
59 1 8.61 0.0 5.74
60 1 10.045 1.435 7.175000000000001
61 1 8.61 2.87 0.0
62 1 10.045 4.305 1.435
63 1 8.61 2.87 2.87
64 1 10.045 4.305 4.305
65 1 8.61 2.87 5.74
66 1 10.045 4.305 7.175000000000001
67 1 8.61 5.74 0.0
68 1 10.045 7.175000000000001 1.435
69 1 8.61 5.74 2.87
70 1 10.045 7.175000000000001 4.305
71 1 8.61 5.74 5.74
72 1 10.045 7.175000000000001 7.175000000000001
73 1 11.48 0.0 0.0
74 1 12.915000000000001 1.435 1.435
75 1 11.48 0.0 2.87
76 1 12.915000000000001 1.435 4.305
77 1 11.48 0.0 5.74
78 1 12.915000000000001 1.435 7.175000000000001
79 1 11.48 2.87 0.0
80 1 12.915000000000001 4.305 1.435
81 1 11.48 2.87 2.87
82 1 12.915000000000001 4.305 4.305
83 1 11.48 2.87 5.74
84 1 12.915000000000001 4.305 7.175000000000001
85 1 11.48 5.74 0.0
86 1 12.915000000000001 7.175000000000001 1.435
87 1 11.48 5.74 2.87
88 1 12.915000000000001 7.175000000000001 4.305
89 1 11.48 5.74 5.74
90 1 12.915000000000001 7.175000000000001 7.175000000000001
91 1 14.350000000000001 0.0 0.0
92 1 15.785 1.435 1.435
93 1 14.350000000000001 0.0 2.87
94 1 15.785 1.435 4.305
95 1 14.350000000000001 0.0 5.74
96 1 15.785 1.435 7.175000000000001
97 1 14.350000000000001 2.87 0.0
98 1 15.785 4.305 1.435
99 1 14.350000000000001 2.87 2.87
100 1 15.785 4.305 4.305
101 1 14.350000000000001 2.87 5.74
102 1 15.785 4.305 7.175000000000001
103 1 14.350000000000001 5.74 0.0
104 1 15.785 7.175000000000001 1.435
105 1 14.350000000000001 5.74 2.87
106 1 15.785 7.175000000000001 4.305
107 1 14.350000000000001 5.74 5.74
108 1 15.785 7.175000000000001 7.175000000000001
109 1 17.22 0.0 0.0
110 1 18.655 1.435 1.435
111 1 17.22 0.0 2.87
112 1 18.655 1.435 4.305
113 1 17.22 0.0 5.74
114 1 18.655 1.435 7.175000000000001
115 1 17.22 2.87 0.0
116 1 18.655 4.305 1.435
117 1 17.22 2.87 2.87
118 1 18.655 4.305 4.305
119 1 17.22 2.87 5.74
120 1 18.655 4.305 7.175000000000001
121 1 17.22 5.74 0.0
122 1 18.655 7.175000000000001 1.435
123 1 17.22 5.74 2.87
124 1 18.655 7.175000000000001 4.305
125 1 17.22 5.74 5.74
126 1 18.655 7.175000000000001 7.175000000000001
127 1 20.09 0.0 0.0
128 1 21.525000000000002 1.435 1.435
129 1 20.09 0.0 2.87
130 1 21.525000000000002 1.435 4.305
131 1 20.09 0.0 5.74
132 1 21.525000000000002 1.435 7.175000000000001
133 1 20.09 2.87 0.0
134 1 21.525000000000002 4.305 1.435
135 1 20.09 2.87 2.87
136 1 21.525000000000002 4.305 4.305
137 1 20.09 2.87 5.74
138 1 21.525000000000002 4.305 7.175000000000001
139 1 20.09 5.74 0.0
140 1 21.525000000000002 7.175000000000001 1.435
141 1 20.09 5.74 2.87
142 1 21.525000000000002 7.175000000000001 4.305
143 1 20.09 5.74 5.74
144 1 21.525000000000002 7.175000000000001 7.175000000000001
145 1 22.96 0.0 0.0
146 1 24.395 1.435 1.435
147 1 22.96 0.0 2.87
148 1 24.395 1.435 4.305
149 1 22.96 0.0 5.74
150 1 24.395 1.435 7.175000000000001
151 1 22.96 2.87 0.0
152 1 24.395 4.305 1.435
153 1 22.96 2.87 2.87
154 1 24.395 4.305 4.305
155 1 22.96 2.87 5.74
156 1 24.395 4.305 7.175000000000001
157 1 22.96 5.74 0.0
158 1 24.395 7.175000000000001 1.435
159 1 22.96 5.74 2.87
160 1 24.395 7.175000000000001 4.305
161 1 22.96 5.74 5.74
162 1 24.395 7.175000000000001 7.175000000000001
163 1 25.830000000000002 0.0 0.0
164 1 27.265 1.435 1.435
165 1 25.830000000000002 0.0 2.87
166 1 27.265 1.435 4.305
167 1 25.830000000000002 0.0 5.74
168 1 27.265 1.435 7.175000000000001
169 1 25.830000000000002 2.87 0.0
170 1 27.265 4.305 1.435
171 1 25.830000000000002 2.87 2.87
172 1 27.265 4.305 4.305
173 1 25.830000000000002 2.87 5.74
174 1 27.265 4.305 7.175000000000001
175 1 25.830000000000002 5.74 0.0
176 1 27.265 7.175000000000001 1.435
177 1 25.830000000000002 5.74 2.87
178 1 27.265 7.175000000000001 4.305
179 1 25.830000000000002 5.74 5.74
180 1 27.265 7.175000000000001 7.175000000000001
