LAMMPS Description

240 atoms
1 atom types

0.0 10.83 xlo xhi
0.0 14.44 ylo yhi
0.0 18.05 zlo zhi

Masses

1 63.55

Atoms # atomic

1 1 0.0 0.0 0.0
2 1 1.805 1.805 0.0
3 1 0.0 1.805 1.805
4 1 1.805 0.0 1.805
5 1 0.0 0.0 3.61
6 1 1.805 1.805 3.61
7 1 0.0 1.805 5.415
8 1 1.805 0.0 5.415
9 1 0.0 0.0 7.22
10 1 1.805 1.805 7.22
11 1 0.0 1.805 9.025
12 1 1.805 0.0 9.025
13 1 0.0 0.0 10.83
14 1 1.805 1.805 10.83
15 1 0.0 1.805 12.635
16 1 1.805 0.0 12.635
17 1 0.0 0.0 14.44
18 1 1.805 1.805 14.44
19 1 0.0 1.805 16.245
20 1 1.805 0.0 16.245
21 1 0.0 3.61 0.0
22 1 1.805 5.415 0.0
23 1 0.0 5.415 1.805
24 1 1.805 3.61 1.805
25 1 0.0 3.61 3.61
26 1 1.805 5.415 3.61
27 1 0.0 5.415 5.415
28 1 1.805 3.61 5.415
29 1 0.0 3.61 7.22
30 1 1.805 5.415 7.22
31 1 0.0 5.415 9.025
32 1 1.805 3.61 9.025
33 1 0.0 3.61 10.83
34 1 1.805 5.415 10.83
35 1 0.0 5.415 12.635
36 1 1.805 3.61 12.635
37 1 0.0 3.61 14.44
38 1 1.805 5.415 14.44
39 1 0.0 5.415 16.245
40 1 1.805 3.61 16.245
41 1 0.0 7.22 0.0
42 1 1.805 9.025 0.0
43 1 0.0 9.025 1.805
44 1 1.805 7.22 1.805
45 1 0.0 7.22 3.61
46 1 1.805 9.025 3.61
47 1 0.0 9.025 5.415
48 1 1.805 7.22 5.415
49 1 0.0 7.22 7.22
50 1 1.805 9.025 7.22
51 1 0.0 9.025 9.025
52 1 1.805 7.22 9.025
53 1 0.0 7.22 10.83
54 1 1.805 9.025 10.83
55 1 0.0 9.025 12.635
56 1 1.805 7.22 12.635
57 1 0.0 7.22 14.44
58 1 1.805 9.025 14.44
59 1 0.0 9.025 16.245
60 1 1.805 7.22 16.245
61 1 0.0 10.83 0.0
62 1 1.805 12.635 0.0
63 1 0.0 12.635 1.805
64 1 1.805 10.83 1.805
65 1 0.0 10.83 3.61
66 1 1.805 12.635 3.61
67 1 0.0 12.635 5.415
68 1 1.805 10.83 5.415
69 1 0.0 10.83 7.22
70 1 1.805 12.635 7.22
71 1 0.0 12.635 9.025
72 1 1.805 10.83 9.025
73 1 0.0 10.83 10.83
74 1 1.805 12.635 10.83
75 1 0.0 12.635 12.635
76 1 1.805 10.83 12.635
77 1 0.0 10.83 14.44
78 1 1.805 12.635 14.44
79 1 0.0 12.635 16.245
80 1 1.805 10.83 16.245
81 1 3.61 0.0 0.0
82 1 5.415 1.805 0.0
83 1 3.61 1.805 1.805
84 1 5.415 0.0 1.805
85 1 3.61 0.0 3.61
86 1 5.415 1.805 3.61
87 1 3.61 1.805 5.415
88 1 5.415 0.0 5.415
89 1 3.61 0.0 7.22
90 1 5.415 1.805 7.22
91 1 3.61 1.805 9.025
92 1 5.415 0.0 9.025
93 1 3.61 0.0 10.83
94 1 5.415 1.805 10.83
95 1 3.61 1.805 12.635
96 1 5.415 0.0 12.635
97 1 3.61 0.0 14.44
98 1 5.415 1.805 14.44
99 1 3.61 1.805 16.245
100 1 5.415 0.0 16.245
101 1 3.61 3.61 0.0
102 1 5.415 5.415 0.0
103 1 3.61 5.415 1.805
104 1 5.415 3.61 1.805
105 1 3.61 3.61 3.61
106 1 5.415 5.415 3.61
107 1 3.61 5.415 5.415
108 1 5.415 3.61 5.415
109 1 3.61 3.61 7.22
110 1 5.415 5.415 7.22
111 1 3.61 5.415 9.025
112 1 5.415 3.61 9.025
113 1 3.61 3.61 10.83
114 1 5.415 5.415 10.83
115 1 3.61 5.415 12.635
116 1 5.415 3.61 12.635
117 1 3.61 3.61 14.44
118 1 5.415 5.415 14.44
119 1 3.61 5.415 16.245
120 1 5.415 3.61 16.245
121 1 3.61 7.22 0.0
122 1 5.415 9.025 0.0
123 1 3.61 9.025 1.805
124 1 5.415 7.22 1.805
125 1 3.61 7.22 3.61
126 1 5.415 9.025 3.61
127 1 3.61 9.025 5.415
128 1 5.415 7.22 5.415
129 1 3.61 7.22 7.22
130 1 5.415 9.025 7.22
131 1 3.61 9.025 9.025
132 1 5.415 7.22 9.025
133 1 3.61 7.22 10.83
134 1 5.415 9.025 10.83
135 1 3.61 9.025 12.635
136 1 5.415 7.22 12.635
137 1 3.61 7.22 14.44
138 1 5.415 9.025 14.44
139 1 3.61 9.025 16.245
140 1 5.415 7.22 16.245
141 1 3.61 10.83 0.0
142 1 5.415 12.635 0.0
143 1 3.61 12.635 1.805
144 1 5.415 10.83 1.805
145 1 3.61 10.83 3.61
146 1 5.415 12.635 3.61
147 1 3.61 12.635 5.415
148 1 5.415 10.83 5.415
149 1 3.61 10.83 7.22
150 1 5.415 12.635 7.22
151 1 3.61 12.635 9.025
152 1 5.415 10.83 9.025
153 1 3.61 10.83 10.83
154 1 5.415 12.635 10.83
155 1 3.61 12.635 12.635
156 1 5.415 10.83 12.635
157 1 3.61 10.83 14.44
158 1 5.415 12.635 14.44
159 1 3.61 12.635 16.245
160 1 5.415 10.83 16.245
161 1 7.22 0.0 0.0
162 1 9.025 1.805 0.0
163 1 7.22 1.805 1.805
164 1 9.025 0.0 1.805
165 1 7.22 0.0 3.61
166 1 9.025 1.805 3.61
167 1 7.22 1.805 5.415
168 1 9.025 0.0 5.415
169 1 7.22 0.0 7.22
170 1 9.025 1.805 7.22
171 1 7.22 1.805 9.025
172 1 9.025 0.0 9.025
173 1 7.22 0.0 10.83
174 1 9.025 1.805 10.83
175 1 7.22 1.805 12.635
176 1 9.025 0.0 12.635
177 1 7.22 0.0 14.44
178 1 9.025 1.805 14.44
179 1 7.22 1.805 16.245
180 1 9.025 0.0 16.245
181 1 7.22 3.61 0.0
182 1 9.025 5.415 0.0
183 1 7.22 5.415 1.805
184 1 9.025 3.61 1.805
185 1 7.22 3.61 3.61
186 1 9.025 5.415 3.61
187 1 7.22 5.415 5.415
188 1 9.025 3.61 5.415
189 1 7.22 3.61 7.22
190 1 9.025 5.415 7.22
191 1 7.22 5.415 9.025
192 1 9.025 3.61 9.025
193 1 7.22 3.61 10.83
194 1 9.025 5.415 10.83
195 1 7.22 5.415 12.635
196 1 9.025 3.61 12.635
197 1 7.22 3.61 14.44
198 1 9.025 5.415 14.44
199 1 7.22 5.415 16.245
200 1 9.025 3.61 16.245
201 1 7.22 7.22 0.0
202 1 9.025 9.025 0.0
203 1 7.22 9.025 1.805
204 1 9.025 7.22 1.805
205 1 7.22 7.22 3.61
206 1 9.025 9.025 3.61
207 1 7.22 9.025 5.415
208 1 9.025 7.22 5.415
209 1 7.22 7.22 7.22
210 1 9.025 9.025 7.22
211 1 7.22 9.025 9.025
212 1 9.025 7.22 9.025
213 1 7.22 7.22 10.83
214 1 9.025 9.025 10.83
215 1 7.22 9.025 12.635
216 1 9.025 7.22 12.635
217 1 7.22 7.22 14.44
218 1 9.025 9.025 14.44
219 1 7.22 9.025 16.245
220 1 9.025 7.22 16.245
221 1 7.22 10.83 0.0
222 1 9.025 12.635 0.0
223 1 7.22 12.635 1.805
224 1 9.025 10.83 1.805
225 1 7.22 10.83 3.61
226 1 9.025 12.635 3.61
227 1 7.22 12.635 5.415
228 1 9.025 10.83 5.415
229 1 7.22 10.83 7.22
230 1 9.025 12.635 7.22
231 1 7.22 12.635 9.025
232 1 9.025 10.83 9.025
233 1 7.22 10.83 10.83
234 1 9.025 12.635 10.83
235 1 7.22 12.635 12.635
236 1 9.025 10.83 12.635
237 1 7.22 10.83 14.44
238 1 9.025 12.635 14.44
239 1 7.22 12.635 16.245
240 1 9.025 10.83 16.245
