 # Cu4
  
           4  atoms
           1  atom types
 
      0.000000000000       3.577430670000  xlo xhi
      0.000000000000       3.577430670000  ylo yhi
      0.000000000000       3.577430670000  zlo zhi
 
Masses
 
            1   63.54600000             # Cu
 
Atoms # atomic
 
         1    1        0.000000000000       0.000000000000       0.000000000000
         2    1        0.000000000000       1.788715335000       1.788715335000
         3    1        1.788715335000       0.000000000000       1.788715335000
         4    1        1.788715335000       1.788715335000       0.000000000000
