 # Cu4
  
         500  atoms
           1  atom types
 
      0.000000000000      17.887153350000  xlo xhi
      0.000000000000      17.887153350000  ylo yhi
      0.000000000000      17.887153350000  zlo zhi
 
Masses
 
            1   63.54600000             # Cu
 
Atoms # atomic

         1    1        0.000000000000       0.000000000000       0.000000000000
         2    1        0.000000000000       1.788715335000       1.788715335000
         3    1        1.788715335000       0.000000000000       1.788715335000
         4    1        1.788715335000       1.788715335000       0.000000000000
         5    1        3.577430670000       0.000000000000       0.000000000000
         6    1        3.577430670000       1.788715335000       1.788715335000
         7    1        5.366146005000       0.000000000000       1.788715335000
         8    1        5.366146005000       1.788715335000       0.000000000000
         9    1        7.154861340000       0.000000000000       0.000000000000
        10    1        7.154861340000       1.788715335000       1.788715335000
        11    1        8.943576675000       0.000000000000       1.788715335000
        12    1        8.943576675000       1.788715335000       0.000000000000
        13    1       10.732292010000       0.000000000000       0.000000000000
        14    1       10.732292010000       1.788715335000       1.788715335000
        15    1       12.521007345000       0.000000000000       1.788715335000
        16    1       12.521007345000       1.788715335000       0.000000000000
        17    1       14.309722680000       0.000000000000       0.000000000000
        18    1       14.309722680000       1.788715335000       1.788715335000
        19    1       16.098438015000       0.000000000000       1.788715335000
        20    1       16.098438015000       1.788715335000       0.000000000000
        21    1        0.000000000000       3.577430670000       0.000000000000
        22    1        0.000000000000       5.366146005000       1.788715335000
        23    1        1.788715335000       3.577430670000       1.788715335000
        24    1        1.788715335000       5.366146005000       0.000000000000
        25    1        3.577430670000       3.577430670000       0.000000000000
        26    1        3.577430670000       5.366146005000       1.788715335000
        27    1        5.366146005000       3.577430670000       1.788715335000
        28    1        5.366146005000       5.366146005000       0.000000000000
        29    1        7.154861340000       3.577430670000       0.000000000000
        30    1        7.154861340000       5.366146005000       1.788715335000
        31    1        8.943576675000       3.577430670000       1.788715335000
        32    1        8.943576675000       5.366146005000       0.000000000000
        33    1       10.732292010000       3.577430670000       0.000000000000
        34    1       10.732292010000       5.366146005000       1.788715335000
        35    1       12.521007345000       3.577430670000       1.788715335000
        36    1       12.521007345000       5.366146005000       0.000000000000
        37    1       14.309722680000       3.577430670000       0.000000000000
        38    1       14.309722680000       5.366146005000       1.788715335000
        39    1       16.098438015000       3.577430670000       1.788715335000
        40    1       16.098438015000       5.366146005000       0.000000000000
        41    1        0.000000000000       7.154861340000       0.000000000000
        42    1        0.000000000000       8.943576675000       1.788715335000
        43    1        1.788715335000       7.154861340000       1.788715335000
        44    1        1.788715335000       8.943576675000       0.000000000000
        45    1        3.577430670000       7.154861340000       0.000000000000
        46    1        3.577430670000       8.943576675000       1.788715335000
        47    1        5.366146005000       7.154861340000       1.788715335000
        48    1        5.366146005000       8.943576675000       0.000000000000
        49    1        7.154861340000       7.154861340000       0.000000000000
        50    1        7.154861340000       8.943576675000       1.788715335000
        51    1        8.943576675000       7.154861340000       1.788715335000
        52    1        8.943576675000       8.943576675000       0.000000000000
        53    1       10.732292010000       7.154861340000       0.000000000000
        54    1       10.732292010000       8.943576675000       1.788715335000
        55    1       12.521007345000       7.154861340000       1.788715335000
        56    1       12.521007345000       8.943576675000       0.000000000000
        57    1       14.309722680000       7.154861340000       0.000000000000
        58    1       14.309722680000       8.943576675000       1.788715335000
        59    1       16.098438015000       7.154861340000       1.788715335000
        60    1       16.098438015000       8.943576675000       0.000000000000
        61    1        0.000000000000      10.732292010000       0.000000000000
        62    1        0.000000000000      12.521007345000       1.788715335000
        63    1        1.788715335000      10.732292010000       1.788715335000
        64    1        1.788715335000      12.521007345000       0.000000000000
        65    1        3.577430670000      10.732292010000       0.000000000000
        66    1        3.577430670000      12.521007345000       1.788715335000
        67    1        5.366146005000      10.732292010000       1.788715335000
        68    1        5.366146005000      12.521007345000       0.000000000000
        69    1        7.154861340000      10.732292010000       0.000000000000
        70    1        7.154861340000      12.521007345000       1.788715335000
        71    1        8.943576675000      10.732292010000       1.788715335000
        72    1        8.943576675000      12.521007345000       0.000000000000
        73    1       10.732292010000      10.732292010000       0.000000000000
        74    1       10.732292010000      12.521007345000       1.788715335000
        75    1       12.521007345000      10.732292010000       1.788715335000
        76    1       12.521007345000      12.521007345000       0.000000000000
        77    1       14.309722680000      10.732292010000       0.000000000000
        78    1       14.309722680000      12.521007345000       1.788715335000
        79    1       16.098438015000      10.732292010000       1.788715335000
        80    1       16.098438015000      12.521007345000       0.000000000000
        81    1        0.000000000000      14.309722680000       0.000000000000
        82    1        0.000000000000      16.098438015000       1.788715335000
        83    1        1.788715335000      14.309722680000       1.788715335000
        84    1        1.788715335000      16.098438015000       0.000000000000
        85    1        3.577430670000      14.309722680000       0.000000000000
        86    1        3.577430670000      16.098438015000       1.788715335000
        87    1        5.366146005000      14.309722680000       1.788715335000
        88    1        5.366146005000      16.098438015000       0.000000000000
        89    1        7.154861340000      14.309722680000       0.000000000000
        90    1        7.154861340000      16.098438015000       1.788715335000
        91    1        8.943576675000      14.309722680000       1.788715335000
        92    1        8.943576675000      16.098438015000       0.000000000000
        93    1       10.732292010000      14.309722680000       0.000000000000
        94    1       10.732292010000      16.098438015000       1.788715335000
        95    1       12.521007345000      14.309722680000       1.788715335000
        96    1       12.521007345000      16.098438015000       0.000000000000
        97    1       14.309722680000      14.309722680000       0.000000000000
        98    1       14.309722680000      16.098438015000       1.788715335000
        99    1       16.098438015000      14.309722680000       1.788715335000
       100    1       16.098438015000      16.098438015000       0.000000000000
       101    1        0.000000000000       0.000000000000       3.577430670000
       102    1        0.000000000000       1.788715335000       5.366146005000
       103    1        1.788715335000       0.000000000000       5.366146005000
       104    1        1.788715335000       1.788715335000       3.577430670000
       105    1        3.577430670000       0.000000000000       3.577430670000
       106    1        3.577430670000       1.788715335000       5.366146005000
       107    1        5.366146005000       0.000000000000       5.366146005000
       108    1        5.366146005000       1.788715335000       3.577430670000
       109    1        7.154861340000       0.000000000000       3.577430670000
       110    1        7.154861340000       1.788715335000       5.366146005000
       111    1        8.943576675000       0.000000000000       5.366146005000
       112    1        8.943576675000       1.788715335000       3.577430670000
       113    1       10.732292010000       0.000000000000       3.577430670000
       114    1       10.732292010000       1.788715335000       5.366146005000
       115    1       12.521007345000       0.000000000000       5.366146005000
       116    1       12.521007345000       1.788715335000       3.577430670000
       117    1       14.309722680000       0.000000000000       3.577430670000
       118    1       14.309722680000       1.788715335000       5.366146005000
       119    1       16.098438015000       0.000000000000       5.366146005000
       120    1       16.098438015000       1.788715335000       3.577430670000
       121    1        0.000000000000       3.577430670000       3.577430670000
       122    1        0.000000000000       5.366146005000       5.366146005000
       123    1        1.788715335000       3.577430670000       5.366146005000
       124    1        1.788715335000       5.366146005000       3.577430670000
       125    1        3.577430670000       3.577430670000       3.577430670000
       126    1        3.577430670000       5.366146005000       5.366146005000
       127    1        5.366146005000       3.577430670000       5.366146005000
       128    1        5.366146005000       5.366146005000       3.577430670000
       129    1        7.154861340000       3.577430670000       3.577430670000
       130    1        7.154861340000       5.366146005000       5.366146005000
       131    1        8.943576675000       3.577430670000       5.366146005000
       132    1        8.943576675000       5.366146005000       3.577430670000
       133    1       10.732292010000       3.577430670000       3.577430670000
       134    1       10.732292010000       5.366146005000       5.366146005000
       135    1       12.521007345000       3.577430670000       5.366146005000
       136    1       12.521007345000       5.366146005000       3.577430670000
       137    1       14.309722680000       3.577430670000       3.577430670000
       138    1       14.309722680000       5.366146005000       5.366146005000
       139    1       16.098438015000       3.577430670000       5.366146005000
       140    1       16.098438015000       5.366146005000       3.577430670000
       141    1        0.000000000000       7.154861340000       3.577430670000
       142    1        0.000000000000       8.943576675000       5.366146005000
       143    1        1.788715335000       7.154861340000       5.366146005000
       144    1        1.788715335000       8.943576675000       3.577430670000
       145    1        3.577430670000       7.154861340000       3.577430670000
       146    1        3.577430670000       8.943576675000       5.366146005000
       147    1        5.366146005000       7.154861340000       5.366146005000
       148    1        5.366146005000       8.943576675000       3.577430670000
       149    1        7.154861340000       7.154861340000       3.577430670000
       150    1        7.154861340000       8.943576675000       5.366146005000
       151    1        8.943576675000       7.154861340000       5.366146005000
       152    1        8.943576675000       8.943576675000       3.577430670000
       153    1       10.732292010000       7.154861340000       3.577430670000
       154    1       10.732292010000       8.943576675000       5.366146005000
       155    1       12.521007345000       7.154861340000       5.366146005000
       156    1       12.521007345000       8.943576675000       3.577430670000
       157    1       14.309722680000       7.154861340000       3.577430670000
       158    1       14.309722680000       8.943576675000       5.366146005000
       159    1       16.098438015000       7.154861340000       5.366146005000
       160    1       16.098438015000       8.943576675000       3.577430670000
       161    1        0.000000000000      10.732292010000       3.577430670000
       162    1        0.000000000000      12.521007345000       5.366146005000
       163    1        1.788715335000      10.732292010000       5.366146005000
       164    1        1.788715335000      12.521007345000       3.577430670000
       165    1        3.577430670000      10.732292010000       3.577430670000
       166    1        3.577430670000      12.521007345000       5.366146005000
       167    1        5.366146005000      10.732292010000       5.366146005000
       168    1        5.366146005000      12.521007345000       3.577430670000
       169    1        7.154861340000      10.732292010000       3.577430670000
       170    1        7.154861340000      12.521007345000       5.366146005000
       171    1        8.943576675000      10.732292010000       5.366146005000
       172    1        8.943576675000      12.521007345000       3.577430670000
       173    1       10.732292010000      10.732292010000       3.577430670000
       174    1       10.732292010000      12.521007345000       5.366146005000
       175    1       12.521007345000      10.732292010000       5.366146005000
       176    1       12.521007345000      12.521007345000       3.577430670000
       177    1       14.309722680000      10.732292010000       3.577430670000
       178    1       14.309722680000      12.521007345000       5.366146005000
       179    1       16.098438015000      10.732292010000       5.366146005000
       180    1       16.098438015000      12.521007345000       3.577430670000
       181    1        0.000000000000      14.309722680000       3.577430670000
       182    1        0.000000000000      16.098438015000       5.366146005000
       183    1        1.788715335000      14.309722680000       5.366146005000
       184    1        1.788715335000      16.098438015000       3.577430670000
       185    1        3.577430670000      14.309722680000       3.577430670000
       186    1        3.577430670000      16.098438015000       5.366146005000
       187    1        5.366146005000      14.309722680000       5.366146005000
       188    1        5.366146005000      16.098438015000       3.577430670000
       189    1        7.154861340000      14.309722680000       3.577430670000
       190    1        7.154861340000      16.098438015000       5.366146005000
       191    1        8.943576675000      14.309722680000       5.366146005000
       192    1        8.943576675000      16.098438015000       3.577430670000
       193    1       10.732292010000      14.309722680000       3.577430670000
       194    1       10.732292010000      16.098438015000       5.366146005000
       195    1       12.521007345000      14.309722680000       5.366146005000
       196    1       12.521007345000      16.098438015000       3.577430670000
       197    1       14.309722680000      14.309722680000       3.577430670000
       198    1       14.309722680000      16.098438015000       5.366146005000
       199    1       16.098438015000      14.309722680000       5.366146005000
       200    1       16.098438015000      16.098438015000       3.577430670000
       201    1        0.000000000000       0.000000000000       7.154861340000
       202    1        0.000000000000       1.788715335000       8.943576675000
       203    1        1.788715335000       0.000000000000       8.943576675000
       204    1        1.788715335000       1.788715335000       7.154861340000
       205    1        3.577430670000       0.000000000000       7.154861340000
       206    1        3.577430670000       1.788715335000       8.943576675000
       207    1        5.366146005000       0.000000000000       8.943576675000
       208    1        5.366146005000       1.788715335000       7.154861340000
       209    1        7.154861340000       0.000000000000       7.154861340000
       210    1        7.154861340000       1.788715335000       8.943576675000
       211    1        8.943576675000       0.000000000000       8.943576675000
       212    1        8.943576675000       1.788715335000       7.154861340000
       213    1       10.732292010000       0.000000000000       7.154861340000
       214    1       10.732292010000       1.788715335000       8.943576675000
       215    1       12.521007345000       0.000000000000       8.943576675000
       216    1       12.521007345000       1.788715335000       7.154861340000
       217    1       14.309722680000       0.000000000000       7.154861340000
       218    1       14.309722680000       1.788715335000       8.943576675000
       219    1       16.098438015000       0.000000000000       8.943576675000
       220    1       16.098438015000       1.788715335000       7.154861340000
       221    1        0.000000000000       3.577430670000       7.154861340000
       222    1        0.000000000000       5.366146005000       8.943576675000
       223    1        1.788715335000       3.577430670000       8.943576675000
       224    1        1.788715335000       5.366146005000       7.154861340000
       225    1        3.577430670000       3.577430670000       7.154861340000
       226    1        3.577430670000       5.366146005000       8.943576675000
       227    1        5.366146005000       3.577430670000       8.943576675000
       228    1        5.366146005000       5.366146005000       7.154861340000
       229    1        7.154861340000       3.577430670000       7.154861340000
       230    1        7.154861340000       5.366146005000       8.943576675000
       231    1        8.943576675000       3.577430670000       8.943576675000
       232    1        8.943576675000       5.366146005000       7.154861340000
       233    1       10.732292010000       3.577430670000       7.154861340000
       234    1       10.732292010000       5.366146005000       8.943576675000
       235    1       12.521007345000       3.577430670000       8.943576675000
       236    1       12.521007345000       5.366146005000       7.154861340000
       237    1       14.309722680000       3.577430670000       7.154861340000
       238    1       14.309722680000       5.366146005000       8.943576675000
       239    1       16.098438015000       3.577430670000       8.943576675000
       240    1       16.098438015000       5.366146005000       7.154861340000
       241    1        0.000000000000       7.154861340000       7.154861340000
       242    1        0.000000000000       8.943576675000       8.943576675000
       243    1        1.788715335000       7.154861340000       8.943576675000
       244    1        1.788715335000       8.943576675000       7.154861340000
       245    1        3.577430670000       7.154861340000       7.154861340000
       246    1        3.577430670000       8.943576675000       8.943576675000
       247    1        5.366146005000       7.154861340000       8.943576675000
       248    1        5.366146005000       8.943576675000       7.154861340000
       249    1        7.154861340000       7.154861340000       7.154861340000
       250    1        7.154861340000       8.943576675000       8.943576675000
       251    1        8.943576675000       7.154861340000       8.943576675000
       252    1        8.943576675000       8.943576675000       7.154861340000
       253    1       10.732292010000       7.154861340000       7.154861340000
       254    1       10.732292010000       8.943576675000       8.943576675000
       255    1       12.521007345000       7.154861340000       8.943576675000
       256    1       12.521007345000       8.943576675000       7.154861340000
       257    1       14.309722680000       7.154861340000       7.154861340000
       258    1       14.309722680000       8.943576675000       8.943576675000
       259    1       16.098438015000       7.154861340000       8.943576675000
       260    1       16.098438015000       8.943576675000       7.154861340000
       261    1        0.000000000000      10.732292010000       7.154861340000
       262    1        0.000000000000      12.521007345000       8.943576675000
       263    1        1.788715335000      10.732292010000       8.943576675000
       264    1        1.788715335000      12.521007345000       7.154861340000
       265    1        3.577430670000      10.732292010000       7.154861340000
       266    1        3.577430670000      12.521007345000       8.943576675000
       267    1        5.366146005000      10.732292010000       8.943576675000
       268    1        5.366146005000      12.521007345000       7.154861340000
       269    1        7.154861340000      10.732292010000       7.154861340000
       270    1        7.154861340000      12.521007345000       8.943576675000
       271    1        8.943576675000      10.732292010000       8.943576675000
       272    1        8.943576675000      12.521007345000       7.154861340000
       273    1       10.732292010000      10.732292010000       7.154861340000
       274    1       10.732292010000      12.521007345000       8.943576675000
       275    1       12.521007345000      10.732292010000       8.943576675000
       276    1       12.521007345000      12.521007345000       7.154861340000
       277    1       14.309722680000      10.732292010000       7.154861340000
       278    1       14.309722680000      12.521007345000       8.943576675000
       279    1       16.098438015000      10.732292010000       8.943576675000
       280    1       16.098438015000      12.521007345000       7.154861340000
       281    1        0.000000000000      14.309722680000       7.154861340000
       282    1        0.000000000000      16.098438015000       8.943576675000
       283    1        1.788715335000      14.309722680000       8.943576675000
       284    1        1.788715335000      16.098438015000       7.154861340000
       285    1        3.577430670000      14.309722680000       7.154861340000
       286    1        3.577430670000      16.098438015000       8.943576675000
       287    1        5.366146005000      14.309722680000       8.943576675000
       288    1        5.366146005000      16.098438015000       7.154861340000
       289    1        7.154861340000      14.309722680000       7.154861340000
       290    1        7.154861340000      16.098438015000       8.943576675000
       291    1        8.943576675000      14.309722680000       8.943576675000
       292    1        8.943576675000      16.098438015000       7.154861340000
       293    1       10.732292010000      14.309722680000       7.154861340000
       294    1       10.732292010000      16.098438015000       8.943576675000
       295    1       12.521007345000      14.309722680000       8.943576675000
       296    1       12.521007345000      16.098438015000       7.154861340000
       297    1       14.309722680000      14.309722680000       7.154861340000
       298    1       14.309722680000      16.098438015000       8.943576675000
       299    1       16.098438015000      14.309722680000       8.943576675000
       300    1       16.098438015000      16.098438015000       7.154861340000
       301    1        0.000000000000       0.000000000000      10.732292010000
       302    1        0.000000000000       1.788715335000      12.521007345000
       303    1        1.788715335000       0.000000000000      12.521007345000
       304    1        1.788715335000       1.788715335000      10.732292010000
       305    1        3.577430670000       0.000000000000      10.732292010000
       306    1        3.577430670000       1.788715335000      12.521007345000
       307    1        5.366146005000       0.000000000000      12.521007345000
       308    1        5.366146005000       1.788715335000      10.732292010000
       309    1        7.154861340000       0.000000000000      10.732292010000
       310    1        7.154861340000       1.788715335000      12.521007345000
       311    1        8.943576675000       0.000000000000      12.521007345000
       312    1        8.943576675000       1.788715335000      10.732292010000
       313    1       10.732292010000       0.000000000000      10.732292010000
       314    1       10.732292010000       1.788715335000      12.521007345000
       315    1       12.521007345000       0.000000000000      12.521007345000
       316    1       12.521007345000       1.788715335000      10.732292010000
       317    1       14.309722680000       0.000000000000      10.732292010000
       318    1       14.309722680000       1.788715335000      12.521007345000
       319    1       16.098438015000       0.000000000000      12.521007345000
       320    1       16.098438015000       1.788715335000      10.732292010000
       321    1        0.000000000000       3.577430670000      10.732292010000
       322    1        0.000000000000       5.366146005000      12.521007345000
       323    1        1.788715335000       3.577430670000      12.521007345000
       324    1        1.788715335000       5.366146005000      10.732292010000
       325    1        3.577430670000       3.577430670000      10.732292010000
       326    1        3.577430670000       5.366146005000      12.521007345000
       327    1        5.366146005000       3.577430670000      12.521007345000
       328    1        5.366146005000       5.366146005000      10.732292010000
       329    1        7.154861340000       3.577430670000      10.732292010000
       330    1        7.154861340000       5.366146005000      12.521007345000
       331    1        8.943576675000       3.577430670000      12.521007345000
       332    1        8.943576675000       5.366146005000      10.732292010000
       333    1       10.732292010000       3.577430670000      10.732292010000
       334    1       10.732292010000       5.366146005000      12.521007345000
       335    1       12.521007345000       3.577430670000      12.521007345000
       336    1       12.521007345000       5.366146005000      10.732292010000
       337    1       14.309722680000       3.577430670000      10.732292010000
       338    1       14.309722680000       5.366146005000      12.521007345000
       339    1       16.098438015000       3.577430670000      12.521007345000
       340    1       16.098438015000       5.366146005000      10.732292010000
       341    1        0.000000000000       7.154861340000      10.732292010000
       342    1        0.000000000000       8.943576675000      12.521007345000
       343    1        1.788715335000       7.154861340000      12.521007345000
       344    1        1.788715335000       8.943576675000      10.732292010000
       345    1        3.577430670000       7.154861340000      10.732292010000
       346    1        3.577430670000       8.943576675000      12.521007345000
       347    1        5.366146005000       7.154861340000      12.521007345000
       348    1        5.366146005000       8.943576675000      10.732292010000
       349    1        7.154861340000       7.154861340000      10.732292010000
       350    1        7.154861340000       8.943576675000      12.521007345000
       351    1        8.943576675000       7.154861340000      12.521007345000
       352    1        8.943576675000       8.943576675000      10.732292010000
       353    1       10.732292010000       7.154861340000      10.732292010000
       354    1       10.732292010000       8.943576675000      12.521007345000
       355    1       12.521007345000       7.154861340000      12.521007345000
       356    1       12.521007345000       8.943576675000      10.732292010000
       357    1       14.309722680000       7.154861340000      10.732292010000
       358    1       14.309722680000       8.943576675000      12.521007345000
       359    1       16.098438015000       7.154861340000      12.521007345000
       360    1       16.098438015000       8.943576675000      10.732292010000
       361    1        0.000000000000      10.732292010000      10.732292010000
       362    1        0.000000000000      12.521007345000      12.521007345000
       363    1        1.788715335000      10.732292010000      12.521007345000
       364    1        1.788715335000      12.521007345000      10.732292010000
       365    1        3.577430670000      10.732292010000      10.732292010000
       366    1        3.577430670000      12.521007345000      12.521007345000
       367    1        5.366146005000      10.732292010000      12.521007345000
       368    1        5.366146005000      12.521007345000      10.732292010000
       369    1        7.154861340000      10.732292010000      10.732292010000
       370    1        7.154861340000      12.521007345000      12.521007345000
       371    1        8.943576675000      10.732292010000      12.521007345000