LAMMPS Description

120 atoms
1 atom types

0.0 8.61 xlo xhi
0.0 11.48 ylo yhi
0.0 14.350000000000001 zlo zhi

Masses

1 55.85

Atoms # atomic

1 1 0.0 0.0 0.0
2 1 1.435 1.435 1.435
3 1 0.0 0.0 2.87
4 1 1.435 1.435 4.305
5 1 0.0 0.0 5.74
6 1 1.435 1.435 7.175000000000001
7 1 0.0 0.0 8.61
8 1 1.435 1.435 10.045
9 1 0.0 0.0 11.48
10 1 1.435 1.435 12.915000000000001
11 1 0.0 2.87 0.0
12 1 1.435 4.305 1.435
13 1 0.0 2.87 2.87
14 1 1.435 4.305 4.305
15 1 0.0 2.87 5.74
16 1 1.435 4.305 7.175000000000001
17 1 0.0 2.87 8.61
18 1 1.435 4.305 10.045
19 1 0.0 2.87 11.48
20 1 1.435 4.305 12.915000000000001
21 1 0.0 5.74 0.0
22 1 1.435 7.175000000000001 1.435
23 1 0.0 5.74 2.87
24 1 1.435 7.175000000000001 4.305
25 1 0.0 5.74 5.74
26 1 1.435 7.175000000000001 7.175000000000001
27 1 0.0 5.74 8.61
28 1 1.435 7.175000000000001 10.045
29 1 0.0 5.74 11.48
30 1 1.435 7.175000000000001 12.915000000000001
31 1 0.0 8.61 0.0
32 1 1.435 10.045 1.435
33 1 0.0 8.61 2.87
34 1 1.435 10.045 4.305
35 1 0.0 8.61 5.74
36 1 1.435 10.045 7.175000000000001
37 1 0.0 8.61 8.61
38 1 1.435 10.045 10.045
39 1 0.0 8.61 11.48
40 1 1.435 10.045 12.915000000000001
41 1 2.87 0.0 0.0
42 1 4.305 1.435 1.435
43 1 2.87 0.0 2.87
44 1 4.305 1.435 4.305
45 1 2.87 0.0 5.74
46 1 4.305 1.435 7.175000000000001
47 1 2.87 0.0 8.61
48 1 4.305 1.435 10.045
49 1 2.87 0.0 11.48
50 1 4.305 1.435 12.915000000000001
51 1 2.87 2.87 0.0
52 1 4.305 4.305 1.435
53 1 2.87 2.87 2.87
54 1 4.305 4.305 4.305
55 1 2.87 2.87 5.74
56 1 4.305 4.305 7.175000000000001
57 1 2.87 2.87 8.61
58 1 4.305 4.305 10.045
59 1 2.87 2.87 11.48
60 1 4.305 4.305 12.915000000000001
61 1 2.87 5.74 0.0
62 1 4.305 7.175000000000001 1.435
63 1 2.87 5.74 2.87
64 1 4.305 7.175000000000001 4.305
65 1 2.87 5.74 5.74
66 1 4.305 7.175000000000001 7.175000000000001
67 1 2.87 5.74 8.61
68 1 4.305 7.175000000000001 10.045
69 1 2.87 5.74 11.48
70 1 4.305 7.175000000000001 12.915000000000001
71 1 2.87 8.61 0.0
72 1 4.305 10.045 1.435
73 1 2.87 8.61 2.87
74 1 4.305 10.045 4.305
75 1 2.87 8.61 5.74
76 1 4.305 10.045 7.175000000000001
77 1 2.87 8.61 8.61
78 1 4.305 10.045 10.045
79 1 2.87 8.61 11.48
80 1 4.305 10.045 12.915000000000001
81 1 5.74 0.0 0.0
82 1 7.175000000000001 1.435 1.435
83 1 5.74 0.0 2.87
84 1 7.175000000000001 1.435 4.305
85 1 5.74 0.0 5.74
86 1 7.175000000000001 1.435 7.175000000000001
87 1 5.74 0.0 8.61
88 1 7.175000000000001 1.435 10.045
89 1 5.74 0.0 11.48
90 1 7.175000000000001 1.435 12.915000000000001
91 1 5.74 2.87 0.0
92 1 7.175000000000001 4.305 1.435
93 1 5.74 2.87 2.87
94 1 7.175000000000001 4.305 4.305
95 1 5.74 2.87 5.74
96 1 7.175000000000001 4.305 7.175000000000001
97 1 5.74 2.87 8.61
98 1 7.175000000000001 4.305 10.045
99 1 5.74 2.87 11.48
100 1 7.175000000000001 4.305 12.915000000000001
101 1 5.74 5.74 0.0
102 1 7.175000000000001 7.175000000000001 1.435
103 1 5.74 5.74 2.87
104 1 7.175000000000001 7.175000000000001 4.305
105 1 5.74 5.74 5.74
106 1 7.175000000000001 7.175000000000001 7.175000000000001
107 1 5.74 5.74 8.61
108 1 7.175000000000001 7.175000000000001 10.045
109 1 5.74 5.74 11.48
110 1 7.175000000000001 7.175000000000001 12.915000000000001
111 1 5.74 8.61 0.0
112 1 7.175000000000001 10.045 1.435
113 1 5.74 8.61 2.87
114 1 7.175000000000001 10.045 4.305
115 1 5.74 8.61 5.74
116 1 7.175000000000001 10.045 7.175000000000001
117 1 5.74 8.61 8.61
118 1 7.175000000000001 10.045 10.045
119 1 5.74 8.61 11.48
120 1 7.175000000000001 10.045 12.915000000000001
