LAMMPS Description

2000 atoms
1 atom types

0.0 72.2 xlo xhi
0.0 18.05 ylo yhi
0.0 18.05 zlo zhi

Masses

1 63.55

Atoms # atomic

1 1 0.01128972397831326 0.00930169004190895 0.008417888376243663
2 1 1.8140523119332748 1.8117285457812011 0.013133675508938538
3 1 0.013158788284903916 1.7984148368633641 1.7958899410836304
4 1 1.7987628133204525 0.0013917634508228854 1.7887045730596398
5 1 0.003786177441770357 18.04795805642008 3.6259152540494406
6 1 1.8053421154134197 1.8048173438663286 3.5932224754792026
7 1 0.015723037468425207 1.7997902752955481 5.416101934184816
8 1 32.17877778726995 5.719124847791469 3.5905689187854706
9 1 0.0156974835095292 0.006767822251115017 7.219210798387768
10 1 1.7895523388166779 1.795701986095874 7.221216511464109
11 1 22.793120413325898 7.9684053962691985 12.732087233376697
12 1 1.5884333756314197 2.8457358477277457 2.0269685283416594
13 1 0.013550975836014112 0.007554686778862981 10.839110166895468
14 1 1.8113480543569143 1.810858780825095 10.813608338978346
15 1 0.008712767281283342 1.800101173912558 12.624130541157674
16 1 1.8141734025368639 0.002461355256050984 12.621782376060793
17 1 0.006045091961162998 0.008447397290720011 14.425717573561801
18 1 1.8118166836711644 1.8091818947773115 14.4558359701508
19 1 0.003959709954272252 1.821545675319138 16.2416434839494
20 1 1.7969276364591367 18.042663117208175 16.258619896190755
21 1 0.011102902443953672 3.6142688168298225 18.037490272752805
22 1 1.8148484266288676 5.428556760743627 18.047438768519307
23 1 0.011611947298197051 5.427992126175956 1.802061703332341
24 1 1.8642871684678333 3.792872544251205 1.764088323453702
25 1 0.0012313560756431988 3.6012473471585595 3.5958069387365437
26 1 1.8149000473219443 5.420833851257852 3.6051088930653092
27 1 0.00034593815786258456 5.421624508750738 5.399885423345186
28 1 1.7993130164148714 3.6134986723076787 5.399439583783167
29 1 0.0144692564293459 3.6147805840947935 7.229143619745932
30 1 1.8199301336645066 5.420409384927749 7.21308138056125
31 1 0.004436761241599194 5.430553808483262 9.021868444349803
32 1 1.7986605351090519 3.595198755156149 9.02079796279319
33 1 0.003410269170789665 3.607680571421998 10.813928676415017
34 1 1.80793536802271 5.418721141371525 10.846700365851865
35 1 0.01590799297639627 5.417864524953669 12.631720124243008
36 1 1.8017467948564394 3.611546085991569 12.617815582562887
37 1 0.006709983415847472 3.6118692448830156 14.423778866224271
38 1 1.8048941819737194 5.414941775379706 14.45734537523094
39 1 0.012884953248785223 5.402496942966461 16.241870777983923
40 1 1.7904901626764773 3.6017533461577265 16.240205008704223
41 1 0.015717494424569056 7.218699637427572 0.006119104544096465
42 1 1.78980811879598 9.034152431661685 18.04360603365204
43 1 0.0015308329417678516 9.031131140197553 1.7895761502325163
44 1 1.7882742937192364 7.2199381481189215 1.807194087863532
45 1 0.006042086462865757 7.20844973979587 3.6009313579898663
46 1 1.7995697075626222 9.031477971266336 3.5962065343466705
47 1 0.005722434973058591 9.011552505303323 5.42484654132929
48 1 1.7947768285937464 7.206307576378914 5.417422341119012
49 1 0.003763793002639468 7.209324691986494 7.233155222103371
50 1 1.7896131911871955 8.977221637175438 7.190581656400477
51 1 0.013886929511123042 9.020556740614447 9.034457750790269
52 1 1.8032393161971871 7.2232904472203066 9.041494870658747
53 1 0.013184376215224091 7.227684278977823 10.837567495841949
54 1 1.7909838003860115 9.024075775687038 10.8199844789597
55 1 0.013761576370116253 9.026633611562955 12.623194426561755
56 1 1.8181584783605746 7.219851236330452 12.623277914446982
57 1 0.0006167639810662199 7.220794384840359 14.423328181494604
58 1 1.7906192160066747 9.032929500936438 14.432301182100197
59 1 0.002942065353899561 9.025708510661495 16.227888287759875
60 1 1.8199071216789626 7.22865238684169 16.246347971125722
61 1 0.006475557015618273 10.826197310588713 0.015333508144561633
62 1 1.8072749814104652 12.619202798917158 0.004282355867535194
63 1 0.012800291505524381 12.623065042914629 1.8014191849120447
64 1 1.8115856932476055 10.814195896742637 1.8036493138452945
65 1 0.008205212074594894 10.824763948153844 3.6233232614855346
66 1 7.672233895520328 14.599815889165624 15.867158956517347
67 1 0.0017740780305310019 12.62867774645465 5.43010428585016
68 1 1.7894766040933516 10.83693197978426 5.41415424724684
69 1 0.01567117861178088 10.838086655703002 7.221667805657148
70 1 49.647909974578546 4.851241006614011 3.419872754513109
71 1 0.0036033207710106808 12.634553754643239 9.00816150666638
72 1 1.8104570823835475 10.829890341169756 9.010659945217723
73 1 0.0009541005590745741 10.846657980310152 10.82542944532712
74 1 1.7893393011906942 12.636606761747768 10.836215296165557
75 1 0.006628000788466255 12.636223575414693 12.61912867621216
76 1 1.7985292726847621 10.822853089406411 12.62061539418829
77 1 47.39973879540657 2.6147783798997892 4.175586934890904
78 1 1.8095755074937658 12.631891959756818 14.422434474976189
79 1 0.0012138464460445058 12.63584982902466 16.261474639235182
80 1 1.8005020395864577 10.829751266728362 16.227459237615122
81 1 0.005514788759774687 14.444100964226942 0.01552056165814326
82 1 1.792371059883858 16.244333629377227 0.011419449864503148
83 1 0.0034824569492740943 16.24592508559874 1.7879968391161762
84 1 1.8082601396015334 14.433207779224382 1.789800253836733
85 1 2.07164832478998e-05 14.398364791321706 3.6064107111915815
86 1 1.8079509288592892 16.253990281024585 3.624784061902949
87 1 0.007915290178667201 16.236215896118665 5.429641641497995
88 1 1.7959251209497864 14.453750798113132 5.417823852512048
89 1 0.016292713613798485 14.438362796422032 7.222143731654907
90 1 1.8042999100549684 16.25862368736073 7.213441247851856
91 1 0.016952853085779377 16.251560185252007 9.020693118628875
92 1 1.796980378891968 14.431302158742422 9.03779363896246
93 1 4.5914991109224035 12.016970009064922 12.98544361019913
94 1 1.7874057085335848 16.24048396267707 10.826471192825593
95 1 0.0030463756148669265 16.23978505782936 12.618893888997054
96 1 1.7960331265291256 14.429949726110536 12.646122507986481
97 1 0.0169870407687768 14.441850059013149 14.441693077197437
98 1 1.7934623398402745 16.233743040094346 14.444752441569738
99 1 0.000470329352043969 16.257379341346464 16.25620994708033
100 1 1.8060367203270373 14.455316792019733 16.25141268281322
101 1 3.606197331393909 0.0012036341712968169 18.032186053237222
102 1 5.414956031855398 1.8162833944016077 0.010530141498661758
103 1 3.6173336306776145 1.8144259834485146 1.8160959907466643
104 1 5.41313495970845 0.017904949601053093 1.8017176427445214
105 1 3.595777207874336 18.04356808038668 3.6173542363310442
106 1 5.418994154249725 1.7940803909380296 3.622704785915812
107 1 3.607728299032362 1.8040353204155006 5.398915320029522
108 1 5.427690992728695 0.0012683117558774798 5.402731231837633
109 1 3.6181728367723993 18.035579531644526 7.21381513550382
110 1 5.416743073655842 1.8052124455375977 7.202153965874758
111 1 3.615684211874335 1.7977982231326823 9.011938687310666
112 1 12.847579159029697 14.128135404960785 4.234115952786961
113 1 3.5985350620744825 0.011100178043998024 10.83946298769065
114 1 5.410328948864476 1.806420582396677 10.846388825824704
115 1 3.6142805866308567 1.792974282953268 12.64509896279128
116 1 5.4101646050144865 18.04869885359016 12.651835378052793
117 1 3.619875130837786 18.039228643577545 14.445379722243452
118 1 5.4148491123146725 1.804972813156287 14.423611220180618
119 1 3.600206951249354 1.7904031946846186 16.245354175157352
120 1 5.419689639084463 18.03978639168638 16.25527959387678
121 1 3.612364867061687 3.6249531964826636 18.042764347228488
122 1 5.420206800424288 5.415165093987472 0.01763565518727641
123 1 3.616690922131697 5.403224117639734 1.8158152049174023
124 1 5.401640548880872 3.6012125967856266 1.7985775469090017
125 1 3.595247647574704 3.6046835495021243 3.618597784271392
126 1 5.421616329925722 5.424918056581693 3.5978082048745383
127 1 3.6235973810115487 5.421622818332852 5.4134472997611685
128 1 5.415635321286068 3.604851730562616 5.4004077860286746
129 1 3.615807018710873 3.6047389725051366 7.203009241752831
130 1 5.4273050025547915 5.407594345663628 7.209165000837903
131 1 3.5973735639434046 5.415562597953976 9.01751014536644
132 1 5.420175791087404 3.6211195955014914 9.012779448682236
133 1 68.97704784407487 16.771446853691018 6.513429758718672
134 1 5.420916388578108 5.417356706325876 10.843711322363
135 1 3.606971950554123 5.412160413456488 12.618112568815723
136 1 16.02153113578605 15.78483470779503 13.766977123336709
137 1 3.601418692545734 3.599137767228958 14.434189600668768
138 1 5.419960825648688 5.414208371631566 14.423647708351252
139 1 3.6045029362330543 5.400696165602351 16.25163991783255
140 1 5.419393895916735 3.5976505998093358 16.2555526468898
141 1 3.618915766774378 7.219985987512993 18.034090838295818
142 1 5.402957339101172 9.031638845154037 0.010382318485003632
143 1 3.612461251753275 9.02426516797734 1.788414741599558
144 1 5.423253817022129 7.211327059551311 1.7959616718119011
145 1 3.6242314969723983 7.218787550790298 3.619722001725809
146 1 5.414107016287721 9.022801939015496 3.628369725764296
147 1 3.6234665768693133 9.019632316852695 5.419644754996969
148 1 5.409439593836705 7.2048896298992915 5.413976973010717
149 1 3.6094062036077403 7.220412843042474 7.23703849556254
150 1 5.4217404052308735 9.033056478751691 7.2033512149404215
151 1 3.611473181333627 9.022206128352272 9.009337274388107
152 1 5.4121281223915005 7.23510570884405 9.03597517738942
153 1 3.6168549135379533 7.226595124099121 10.844055147091993
154 1 5.410127747874774 9.035793816239929 10.843403306271597
155 1 3.6021837628493802 9.039818673632098 12.626897412419645
156 1 5.4241271765336805 7.2204431848709785 12.621454476378137
157 1 3.607090517941187 7.231416729559248 14.427586472491955
158 1 5.416983777955869 9.04160725002263 14.442877550870138
159 1 3.607767689154038 9.037803831917783 16.23459494812881
160 1 5.41516575428879 7.2204448280210265 16.262244070404126
161 1 3.6122634692911326 10.831448347049873 0.017249966408291573
162 1 5.406236822009225 12.622453155412083 18.04212905143392
163 1 3.6107787761487775 12.635803563510683 1.8218745388104813
164 1 5.416004037465797 10.81849146539422 1.791699225781491
165 1 3.6193991818407856 10.817556840366118 3.604288873895339
166 1 5.428321663730387 12.632756364616318 3.6197466030216328
167 1 3.6114691057090105 12.634397921193335 5.396498620668024
168 1 5.431535493489963 10.843153696784855 5.43441444707991
169 1 3.601353409567467 10.828832622494488 7.234843286275918
170 1 5.532172390533997 12.50127335114493 7.0704914561304975
171 1 3.611326987164191 12.628375834369647 9.04223074547737
172 1 5.413693963698367 10.826081978470912 9.009984377056439
173 1 28.85954972819401 3.225340228967959 12.87649326748834
174 1 5.401502282690405 12.626346111416026 10.829558628064863
175 1 3.599434870092332 12.644135427383958 12.645506097226235
176 1 5.40101383848089 10.826480240364608 12.63317278774506
177 1 3.6107517364646515 10.831414389651837 14.457552255268501
178 1 5.407033453349234 12.634880666363621 14.426324085627957
179 1 3.620611629428834 12.6383729995015 16.256434169956098
180 1 5.405020107728631 10.81892722419937 16.236785553137977
181 1 3.6237695874141664 14.431479018219438 0.006168364362261391
182 1 5.424912424597552 16.246751546411293 18.03780950140384
183 1 3.608121480554339 16.241717400009247 1.8223260249668114
184 1 5.404732831500466 14.453509581720716 1.8083729964021074
185 1 3.6093410991718144 14.448067607506056 3.5954351924455894
186 1 5.414172588208877 16.236378901317703 3.594681184793809
187 1 3.6044861544465747 16.252942875141365 5.428369128767176
188 1 5.409250268019709 14.443394744301086 5.4312601010115555
189 1 3.62381385532549 14.436321086627721 7.217383067784986
190 1 5.415076344656059 16.24480094998171 7.238115486734249
191 1 3.593886053960838 16.23712507447139 9.025726999101396
192 1 5.423393390037911 14.441636997968669 9.040076971734099
193 1 3.6229842980129883 14.451161883005234 10.834598361719705
194 1 5.405998982185043 16.23789903084683 10.816933359571948
195 1 3.606170397534311 16.25654462130854 12.62210209918593
196 1 5.41604606765529 14.43023864073967 12.648366765650186
197 1 3.604791170517858 14.446336926528353 14.42368991490858
198 1 9.715592850130898 1.8032784114464648 8.558640083941013
199 1 65.2680786109343 6.410767473404164 15.036316407862504
200 1 5.419966701318129 14.418487427700452 16.24542458326354
201 1 7.224105495470506 0.010447468094308339 0.01656915851721064
202 1 9.017793319942331 1.790088501137966 0.005762966825850624
203 1 7.226249546722326 1.7914101386833794 1.7989752446312952
204 1 9.013474568937395 0.0063547625185676904 1.7707823499985853
205 1 7.235382655393379 0.0005096115341250014 3.6060312435401776
206 1 9.049672151247847 1.8023187788455808 3.6262063631836687
207 1 7.2170367378575735 1.787034514979723 5.4104528448283
208 1 9.03171602800672 18.045421628968736 5.400257645710551
209 1 7.207491420593699 18.04913955765269 7.230829568291341
210 1 9.02654925428215 1.7942012015951276 7.158375596407417
211 1 7.219034695693713 1.8048429756413091 9.008053918996861
212 1 9.041989386626074 0.0032150111653226595 9.030462913722332
213 1 7.236290666493402 0.002329979332959843 10.832435753290065
214 1 9.031852846805045 1.8119548504515146 10.81290166845099
215 1 64.59635063869936 11.37906599060554 0.6687397581775192
216 1 9.038076485394187 0.00772700113135022 12.643735742179214
217 1 7.22735983419105 18.049149942486906 14.456082332538244
218 1 9.039393962735126 1.8098693352712056 14.43086953605183
219 1 7.222768566756342 1.7966320731254548 16.229769878523143
220 1 9.028883378557248 18.032894577378887 16.247869364712102
221 1 7.2128419442598135 3.6150455750425023 18.034648359675536
222 1 9.037096510161275 5.426535634212299 18.04960763514737
223 1 53.01636482310377 10.231945680845831 5.127157089383466
224 1 9.025539596183993 3.6109999534346415 1.8230959006385206
225 1 7.219136644494047 3.623924711923822 3.5998215545478933
226 1 9.031116048173352 5.413500341772972 3.6250148359010925
227 1 7.219389792129532 5.416527344986278 5.400701945191648
228 1 9.03997450246811 3.6024413349264335 5.4230413723248185
229 1 7.218791237721085 3.6050111266004774 7.201857395972018
230 1 9.01797716334602 5.40962941211244 7.233536942774343
231 1 7.2219769418643045 5.41003357393228 9.009678850148966
232 1 9.015559468373084 3.627821079090128 9.031540421442154
233 1 7.213355282638358 3.61082679903951 10.846364125600568
234 1 9.023561307294349 5.4129375799923665 10.846969867177727
235 1 33.02321025148581 11.725459315671115 12.538601031409595
236 1 9.007748718771564 3.6058221678298104 12.631715139768724
237 1 7.223650215216428 3.625463954136314 14.428253057588403
238 1 9.0148853377578 5.404962138173715 14.429711063253185
239 1 7.228583122429271 5.428676182575198 16.236561034877187
240 1 9.035225983177968 3.623378522947902 16.246511037077987
241 1 7.2325153500808135 7.219814239561862 18.03762751164219
242 1 1.3216185316776075 5.54880358319799 4.672362693507542
243 1 7.205515643745508 9.03125692736186 1.8099467213901872
244 1 9.01793959755268 7.230654727345362 1.793804844575379
245 1 7.209514956181079 7.221663552513268 3.628658118100759
246 1 9.03416654743329 9.039006580599482 3.6045732024848323
247 1 7.226399589437391 9.035799501094084 5.403518190807475
248 1 9.022074933132815 7.225876285185815 5.4318626238707015
249 1 7.234360830318976 7.222204935792125 7.2115175736793
250 1 9.025464545082468 9.030896715807105 7.206117188381575
251 1 7.204750538784244 9.01607393521884 9.023618001831872
252 1 9.024117037241961 7.220845806003346 9.039097248181989
253 1 7.222255003858966 7.218164056860787 10.811341744358767
254 1 9.024044746767743 9.029170275018 10.813677476731636
255 1 7.2177198137435195 9.018378714718752 12.619103323569258
256 1 9.021180725501162 7.20340852676281 12.639364532084912
257 1 7.220268951932176 7.226122711364271 14.455997932802363
258 1 9.016266073129719 9.033066531854221 14.453048057506242
259 1 7.225987322274287 9.021343879077582 16.23009854490545
260 1 9.024898508347096 7.2204593912671005 16.22862670890351
261 1 7.214106766684191 10.83302831816826 0.014952385447929664
262 1 9.028868561772038 12.63751511988262 0.01641462860040844
263 1 7.206263529839845 12.623722828027134 1.8078945747854367
264 1 9.015549162675155 10.815715844809114 1.804974366216094
265 1 7.217898025812476 10.842743958823549 3.6227750739121745
266 1 9.01634621411174 12.639268240699685 3.593788475645511
267 1 7.213800002420315 12.626787775494487 5.401848141351229
268 1 13.930434836200417 7.7232236477635325 3.1098273514268486
269 1 7.223924007475285 10.831213722429156 7.23421230325193
270 1 23.983021626107686 6.523087415120535 2.6038922771883413
271 1 7.222097506659336 12.65136961923172 9.024849673373819
272 1 9.01862172638735 10.844020332835925 9.020832218694943
273 1 7.21711803309633 10.839129872081458 10.8441308205001
274 1 9.02413236057982 12.634922314356825 10.847862417007944
275 1 7.218211055651829 12.629486106659737 12.618869354694267
276 1 9.038342925021935 10.82161939976561 12.635080447907379
277 1 7.211076007232682 10.828511148878503 14.425456725212403
278 1 9.010829290102691 12.638462801673455 14.427822028044043
279 1 7.228543033749351 12.64648630429247 16.23960685858291
280 1 9.031846550899262 10.815345039515282 16.239840428942394
281 1 66.2308684790408 14.781382220193363 15.363468223892449
282 1 9.016756439497884 16.210012286725526 17.999185600126506
283 1 7.218570864330929 16.24213545052728 1.821866150256272
284 1 9.024848994109554 14.450185602064478 1.793087829768595
285 1 7.236007092999745 14.440787077299662 3.6024854962441437
286 1 9.032275573486855 16.257395823653 3.6012277010867257
287 1 7.210953160519243 16.247895865316877 5.428742861801266
288 1 9.026137567757509 14.449185126990153 5.401817023668159
289 1 7.215341414079926 14.445118417163979 7.203759638493808
290 1 9.030109668562416 16.24102798171603 7.23582102630396
291 1 7.230489868266854 16.250754256620436 9.035919960791302
292 1 9.023242159063246 14.444745145813242 9.007870812115987
293 1 7.233188333799291 14.444283121227162 10.816690949248851
294 1 9.008884460254007 16.245222072434615 10.825765714182097
295 1 7.212796088347027 16.241394544321523 12.618551989590868
296 1 9.017610147039871 14.443229077005086 12.620327660082204
297 1 67.26807005712999 17.637409763521223 4.928261313022129
298 1 9.027701384090314 16.244054155386184 14.45665502714192
299 1 7.2133296586985 16.26080764616943 16.242148177172375
300 1 9.032242843738466 14.439130588302781 16.230512280621575
301 1 10.842393730979865 18.03990634532858 18.045688109538172
302 1 12.661633358560527 1.7990779738487428 18.047060684358208
303 1 10.8366667801313 1.793421157799494 1.8081358878033462
304 1 12.635022021620006 18.049763381131882 1.8213903844692862
305 1 10.84228219104003 18.042213529825432 3.600958885513719
306 1 12.631023271538128 1.7927076169483025 3.5998348134466838
307 1 10.832450102392357 1.7766143108618029 5.45497422750186
308 1 12.6266317156468 18.044344171371943 5.400290486687887
309 1 10.841025205005652 18.037990450014497 7.214612756426041
310 1 12.62234485408697 1.7997469826396055 7.213260330427533
311 1 28.216981867828597 0.5635342035211127 15.11448880576134
312 1 12.633762055175996 0.008190182749341432 9.039268156521171
313 1 10.823962034431696 0.015201718856428239 10.82344345930135
314 1 12.644803518766158 1.8160049105683804 10.820984114996179
315 1 34.646027769825835 6.238996704002915 14.751316366227403
316 1 12.643293516358352 0.005143483340914224 12.620451677534192
317 1 10.828020965885148 0.005852007864399293 14.453189316300854
318 1 12.635507048565433 1.7940423430817267 14.425715339184599
319 1 10.83136153972141 1.8071103208005381 16.261824948806062
320 1 12.641171832049908 18.041847554708617 16.230206183026187
321 1 10.827114796556133 3.6115026062014794 0.017538565940085425
322 1 12.629137231389935 5.41706633623098 18.033889279020876
323 1 10.82714964525757 5.419059643886343 1.7903457803399108
324 1 12.620091469807646 3.6132680400220907 1.8118244360252997
325 1 10.827743676077512 3.6094284137784625 3.591515179293225
326 1 12.639873917614617 5.421853173043873 3.625348776623231
327 1 10.830867717062597 5.430005624796006 5.405344721171515
328 1 12.6484117033187 3.615770355267104 5.406401565916082
329 1 10.831546629474245 3.5961728636469905 7.210818025811276
330 1 12.637497188326105 5.415453255724 7.237609011881306
331 1 58.00482694126227 11.07140132293508 9.857821439131596
332 1 12.652731500579776 3.604234292476595 9.020569269758424
333 1 10.842448866263034 3.6002368844575443 10.830837821235582
334 1 12.6209720446226 5.418759273798977 10.839780924186085
335 1 10.825219953854612 5.418772481577238 12.651448876410928
336 1 12.643568560966491 3.6048058861350945 12.64923490881625
337 1 10.82262443061886 3.60252739408936 14.453639049298598
338 1 12.64002716638837 5.411936418834377 14.4551975198863
339 1 10.845112226420065 5.415118702636532 16.253757935348567
340 1 12.633010972552281 3.614252803306939 16.260306649713986
341 1 10.826633481419558 7.223742705812688 18.034749010763186
342 1 12.627200736827994 9.030280302613841 0.013577904717804899
343 1 10.81572894770811 9.022348625912523 1.791692991917513
344 1 12.64176790710131 7.221205910333124 1.7884624367574449
345 1 10.838222670565257 7.234841966389023 3.6137377757630467
346 1 70.68295252675613 16.276424339852888 6.3694770400007945
347 1 10.818667994673199 9.038177777378818 5.420122206600624
348 1 12.628802028069076 7.234104177124506 5.4238429488224655
349 1 10.84458974057293 7.2291352003327605 7.22210967063807
350 1 12.627921622753522 9.01089967278309 7.2290273548539234
351 1 10.841886214142411 9.029911274060918 9.013435652916469
352 1 12.627817518656155 7.203168235011153 9.02700346881251
353 1 10.844356326019728 7.223261684375864 10.832175753812226
354 1 12.63774678035065 9.024464113561315 10.846393169628922
355 1 10.82355177369765 9.02052187920004 12.65219992793722
356 1 12.631641420638248 7.218719057743185 12.65124998066477
357 1 63.16504962357783 0.6883661375745906 7.81056756134339
358 1 12.629090382998914 9.009852396555033 14.44009783647008
359 1 10.831225597556948 9.024155733016837 16.227037176091137
360 1 12.640861656064821 7.224826022909453 16.26244905364258
361 1 32.047589620671545 15.084809764965964 6.2003170020017935
362 1 12.624363775613856 12.623774849517334 18.042450203358516
363 1 10.844972287958223 12.635138051247575 1.8137579021766306
364 1 12.619294230180218 10.821448910844115 1.8038659513055526
365 1 10.843847412601145 10.839301646653178 3.605877072863664
366 1 12.64515871607296 12.636941602789577 3.622119980224769
367 1 10.843651078427783 12.62754926821502 5.4078820468965665
368 1 12.630985907811171 10.815676338956882 5.405045686701921
369 1 10.823785573640789 10.829101244563045 7.233984767345998
370 1 12.626793882540504 12.639927294732306 7.234259436526187
371 1 10.831672432090777 12.630536196320147 9.00814590706493
372 1 12.633546025567465 10.829255635900852 9.008180980183592
373 1 10.839629010515432 10.815740705143927 10.83093121291089
374 1 12.647879601664002 12.6373830235238 10.817895847698962
375 1 10.830893690930262 12.633397614802325 12.652907125807426
376 1 12.63893773908379 10.815379585995762 12.626419283992542
377 1 10.819953108078806 10.829884168446458 14.453724681539335
378 1 12.635104160967654 12.635664205689675 14.45678388332439
379 1 10.840952597030007 12.623701470615707 16.238012591230106
380 1 12.623675481473837 10.826248051768541 16.258704282328964
381 1 10.835815393231876 14.443443237219425 0.017415225077403167
382 1 12.649318545570933 16.245299724103578 18.04046521828704
383 1 10.83687046499823 16.240880041822056 1.7877632408313273
384 1 12.637371296784108 14.438548241709018 1.7890870372352663
385 1 10.829415371281659 14.425709861185831 3.618771809242176
386 1 12.63177136343354 16.2583775428734 3.6216044923821005
387 1 10.816889077169812 16.25509044664262 5.4195129417289225
388 1 12.633935742910994 14.461973067164388 5.427731735482943
389 1 9.669418464481371 17.26973801535164 2.0498325423008126
390 1 12.63126603823435 16.237236834808943 7.2053397064944225
391 1 10.829606672568323 16.227652156102003 9.020888112699932
392 1 12.64894168043914 14.448415474858692 9.031507776206466
393 1 10.813745775886987 14.438538663010872 10.836512241891102
394 1 12.645285577333617 16.251843931119534 10.839139807760603
395 1 10.844909852853919 16.246730194711283 12.62792705930545
396 1 12.633591634710033 14.454113400155467 12.646096356614596
397 1 10.824578883794462 14.433565799947628 14.454516149778037
398 1 12.652257000569827 16.240279025941003 14.436458862930186
399 1 10.832321277754785 16.245337934249612 16.260812164205692
400 1 12.635120751806964 14.440012302482128 16.22769036795731
401 1 16.133257805495656 0.2942315158670375 14.614172528340003
402 1 16.243694256460813 1.822528580280819 18.048064607848058
403 1 14.438999290766548 1.8094796838409664 1.7885223917534094
404 1 16.253729889214554 0.004569575737568693 1.8177931782676324
405 1 14.425201244313465 0.00019538773040056188 3.6188284821036594
406 1 16.243431847253614 1.8047815722477172 3.627895829057163
407 1 14.445897570715498 1.8025682184749345 5.430807106659588
408 1 17.478195452547215 6.06347571391811 8.110153798077517
409 1 14.439495618481228 0.008656476859456575 7.235328573354818
410 1 16.25872636736716 1.8123602157777956 7.226995554947945
411 1 14.442346738978618 1.794290294733504 9.010466794082413
412 1 16.243260939647637 0.009687626763044056 9.039198122347793
413 1 14.439248759697383 0.0033248362911786366 10.812419444752267
414 1 16.261030983611015 1.8077457555478609 10.824981297538661
415 1 14.438160264577837 1.8067576468201472 12.651567813993115
416 1 16.255888676039163 18.041537021204014 12.62472639630448
417 1 14.436974075954037 0.0032020863595012676 14.45712438211545
418 1 16.262412118979253 1.8069328896879655 14.437399105572261
419 1 14.44355641398515 1.8010812748428566 16.227217656078803
420 1 16.24679441231967 18.04296894630336 16.26155168859702
421 1 14.445324795334463 3.598754216451287 0.011635778309940654
422 1 16.243892812812362 5.412687989283709 18.032609421731543
423 1 14.449306185425147 5.4063045223589405 1.7926096498366013
424 1 16.24651537302609 3.6060418948917397 1.8218949623003662
425 1 14.447095836200255 3.6117308279279845 3.6267908474595263
426 1 16.233559515034447 5.417977649846223 3.620297747376815
427 1 14.439440796195528 5.414513654380685 5.431366934654331
428 1 16.247682314191724 3.604084419302832 5.399291371021066
429 1 14.430598023695048 3.595859514896567 7.225573760201377
430 1 16.23105851947444 5.413664091764192 7.230286860684639
431 1 14.449974306005968 5.404342161827667 9.02983322936993
432 1 16.253122548705168 3.6045148193292733 9.040536474209999
433 1 14.4552394966254 3.6124615145021584 10.824066058748606
434 1 16.23332816859694 5.411896837052028 10.84344487750138
435 1 14.445735201666182 5.42913921688964 12.641857122561099
436 1 16.23832473326974 3.6078771689654694 12.619584911098979
437 1 14.436790957645885 3.5963198486769063 14.429237317314973
438 1 16.227061742538442 5.412745546970508 14.44354783040864
439 1 14.443720602015489 5.396195250033864 16.24790265633608
440 1 16.24588331600757 3.5935819673077987 16.238692279186413
441 1 14.437473478792135 7.2210247683366156 0.016154167459375986
442 1 16.23533374094565 9.017900732951855 0.015243101535119348
443 1 14.424841618815227 9.035341401530777 1.8026133782469558
444 1 16.251240941411663 7.23577704022675 1.8041106145720098
445 1 14.515284438554929 7.158199306104983 3.6912684644552174
446 1 16.254508255771157 9.03906901981221 3.605410321270921
447 1 14.435894229282457 9.04066925137153 5.4103868702620925
448 1 16.246294199222984 7.225718974221517 5.399816846173515
449 1 14.441031956892909 7.205354538906077 7.213055365065831
450 1 16.23332308364077 9.034498066025245 7.216730825811712
451 1 14.457625298716176 9.022564888574086 9.030826070479126
452 1 16.234861296716417 7.206534931868476 9.027857512613341
453 1 14.433611098004778 7.23565788116803 10.82742315799143
454 1 16.244333828911124 9.011674315428987 10.819278646914018
455 1 14.447614286938588 9.013138978500985 12.624441286309297
456 1 16.25225926138525 7.22180523952553 12.619143806379077
457 1 20.4561305111257 2.745976984182645 4.581756396059796
458 1 16.311937520227875 9.058535122574817 14.419568152915259
459 1 14.431650887453307 9.018982185431184 16.231669208886622
460 1 16.251207276867493 7.217976064404234 16.228295848428658
461 1 14.433208672195917 10.83349617695063 0.016864342282995843
462 1 16.240800056116427 12.632858134396288 0.015663684483943747
463 1 14.44434720331205 12.633301162856567 1.7895371977016707
464 1 16.24131331681311 10.81941932709229 1.7929507232635733
465 1 14.42947396039299 10.824513667412054 3.5971950645968755
466 1 16.24189766857195 12.652250124572292 3.608283712630459
467 1 14.437593743924323 12.63078357713798 5.399139900446603
468 1 16.24671653390935 10.81442077822097 5.421105169046119
469 1 14.434794497586493 10.828994260501918 7.203374222020788
470 1 16.247637104122724 12.621885158068988 7.207968132556397
471 1 14.450241053946053 12.636753356031354 9.038358350497466
472 1 16.238478305733395 10.844125491522604 9.033909871250954
473 1 14.429185761595273 10.8250596723052 10.817454210275004
474 1 16.248597355237322 12.625905779011049 10.815711816828925
475 1 14.450248655388014 12.6211845383928 12.63424183273211
476 1 16.240266544121546 10.838994340514514 12.647815791246234
477 1 14.435853442535882 10.844557590606852 14.436846185852449
478 1 16.237783189493594 12.63990718066736 14.426855306528394
479 1 14.441977845806838 12.618791392513472 16.246066190838697
480 1 16.245480618722507 10.831412079168603 16.26450332723998
481 1 14.446420571260411 14.445496994736963 18.034128479912873
482 1 16.250846757341044 16.231188618265676 18.044430128977044
483 1 14.4531558019611 16.236229349219236 1.7956101692226338
484 1 16.23588515532835 14.428010576358055 1.7963664475938805