LAMMPS Description

2440 atoms
2 atom types

0.0 77.0 xlo xhi
0.0 21.66 ylo yhi
0.0 21.66 zlo zhi

Masses

1 63.55
2 107.87

Atoms # atomic

1 1 0.0 0.0 0.0
2 1 1.805 1.805 0.0
3 1 0.0 1.805 1.805
4 1 1.805 0.0 1.805
5 1 0.0 0.0 3.61
6 1 1.805 1.805 3.61
7 1 0.0 1.805 5.415
8 1 1.805 0.0 5.415
9 1 0.0 0.0 7.22
10 1 1.805 1.805 7.22
11 1 0.0 1.805 9.025
12 1 1.805 0.0 9.025
13 1 0.0 0.0 10.83
14 1 1.805 1.805 10.83
15 1 0.0 1.805 12.635
16 1 1.805 0.0 12.635
17 1 0.0 0.0 14.44
18 1 1.805 1.805 14.44
19 1 0.0 1.805 16.245
20 1 1.805 0.0 16.245
21 1 0.0 0.0 18.05
22 1 1.805 1.805 18.05
23 1 0.0 1.805 19.855
24 1 1.805 0.0 19.855
25 1 0.0 3.61 0.0
26 1 1.805 5.415 0.0
27 1 0.0 5.415 1.805
28 1 1.805 3.61 1.805
29 1 0.0 3.61 3.61
30 1 1.805 5.415 3.61
31 1 0.0 5.415 5.415
32 1 1.805 3.61 5.415
33 1 0.0 3.61 7.22
34 1 1.805 5.415 7.22
35 1 0.0 5.415 9.025
36 1 1.805 3.61 9.025
37 1 0.0 3.61 10.83
38 1 1.805 5.415 10.83
39 1 0.0 5.415 12.635
40 1 1.805 3.61 12.635
41 1 0.0 3.61 14.44
42 1 1.805 5.415 14.44
43 1 0.0 5.415 16.245
44 1 1.805 3.61 16.245
45 1 0.0 3.61 18.05
46 1 1.805 5.415 18.05
47 1 0.0 5.415 19.855
48 1 1.805 3.61 19.855
49 1 0.0 7.22 0.0
50 1 1.805 9.025 0.0
51 1 0.0 9.025 1.805
52 1 1.805 7.22 1.805
53 1 0.0 7.22 3.61
54 1 1.805 9.025 3.61
55 1 0.0 9.025 5.415
56 1 1.805 7.22 5.415
57 1 0.0 7.22 7.22
58 1 1.805 9.025 7.22
59 1 0.0 9.025 9.025
60 1 1.805 7.22 9.025
61 1 0.0 7.22 10.83
62 1 1.805 9.025 10.83
63 1 0.0 9.025 12.635
64 1 1.805 7.22 12.635
65 1 0.0 7.22 14.44
66 1 1.805 9.025 14.44
67 1 0.0 9.025 16.245
68 1 1.805 7.22 16.245
69 1 0.0 7.22 18.05
70 1 1.805 9.025 18.05
71 1 0.0 9.025 19.855
72 1 1.805 7.22 19.855
73 1 0.0 10.83 0.0
74 1 1.805 12.635 0.0
75 1 0.0 12.635 1.805
76 1 1.805 10.83 1.805
77 1 0.0 10.83 3.61
78 1 1.805 12.635 3.61
79 1 0.0 12.635 5.415
80 1 1.805 10.83 5.415
81 1 0.0 10.83 7.22
82 1 1.805 12.635 7.22
83 1 0.0 12.635 9.025
84 1 1.805 10.83 9.025
85 1 0.0 10.83 10.83
86 1 1.805 12.635 10.83
87 1 0.0 12.635 12.635
88 1 1.805 10.83 12.635
89 1 0.0 10.83 14.44
90 1 1.805 12.635 14.44
91 1 0.0 12.635 16.245
92 1 1.805 10.83 16.245
93 1 0.0 10.83 18.05
94 1 1.805 12.635 18.05
95 1 0.0 12.635 19.855
96 1 1.805 10.83 19.855
97 1 0.0 14.44 0.0
98 1 1.805 16.245 0.0
99 1 0.0 16.245 1.805
100 1 1.805 14.44 1.805
101 1 0.0 14.44 3.61
102 1 1.805 16.245 3.61
103 1 0.0 16.245 5.415
104 1 1.805 14.44 5.415
105 1 0.0 14.44 7.22
106 1 1.805 16.245 7.22
107 1 0.0 16.245 9.025
108 1 1.805 14.44 9.025
109 1 0.0 14.44 10.83
110 1 1.805 16.245 10.83
111 1 0.0 16.245 12.635
112 1 1.805 14.44 12.635
113 1 0.0 14.44 14.44
114 1 1.805 16.245 14.44
115 1 0.0 16.245 16.245
116 1 1.805 14.44 16.245
117 1 0.0 14.44 18.05
118 1 1.805 16.245 18.05
119 1 0.0 16.245 19.855
120 1 1.805 14.44 19.855
121 1 0.0 18.05 0.0
122 1 1.805 19.855 0.0
123 1 0.0 19.855 1.805
124 1 1.805 18.05 1.805
125 1 0.0 18.05 3.61
126 1 1.805 19.855 3.61
127 1 0.0 19.855 5.415
128 1 1.805 18.05 5.415
129 1 0.0 18.05 7.22
130 1 1.805 19.855 7.22
131 1 0.0 19.855 9.025
132 1 1.805 18.05 9.025
133 1 0.0 18.05 10.83
134 1 1.805 19.855 10.83
135 1 0.0 19.855 12.635
136 1 1.805 18.05 12.635
137 1 0.0 18.05 14.44
138 1 1.805 19.855 14.44
139 1 0.0 19.855 16.245
140 1 1.805 18.05 16.245
141 1 0.0 18.05 18.05
142 1 1.805 19.855 18.05
143 1 0.0 19.855 19.855
144 1 1.805 18.05 19.855
145 1 3.61 0.0 0.0
146 1 5.415 1.805 0.0
147 1 3.61 1.805 1.805
148 1 5.415 0.0 1.805
149 1 3.61 0.0 3.61
150 1 5.415 1.805 3.61
151 1 3.61 1.805 5.415
152 1 5.415 0.0 5.415
153 1 3.61 0.0 7.22
154 1 5.415 1.805 7.22
155 1 3.61 1.805 9.025
156 1 5.415 0.0 9.025
157 1 3.61 0.0 10.83
158 1 5.415 1.805 10.83
159 1 3.61 1.805 12.635
160 1 5.415 0.0 12.635
161 1 3.61 0.0 14.44
162 1 5.415 1.805 14.44
163 1 3.61 1.805 16.245
164 1 5.415 0.0 16.245
165 1 3.61 0.0 18.05
166 1 5.415 1.805 18.05
167 1 3.61 1.805 19.855
168 1 5.415 0.0 19.855
169 1 3.61 3.61 0.0
170 1 5.415 5.415 0.0
171 1 3.61 5.415 1.805
172 1 5.415 3.61 1.805
173 1 3.61 3.61 3.61
174 1 5.415 5.415 3.61
175 1 3.61 5.415 5.415
176 1 5.415 3.61 5.415
177 1 3.61 3.61 7.22
178 1 5.415 5.415 7.22
179 1 3.61 5.415 9.025
180 1 5.415 3.61 9.025
181 1 3.61 3.61 10.83
182 1 5.415 5.415 10.83
183 1 3.61 5.415 12.635
184 1 5.415 3.61 12.635
185 1 3.61 3.61 14.44
186 1 5.415 5.415 14.44
187 1 3.61 5.415 16.245
188 1 5.415 3.61 16.245
189 1 3.61 3.61 18.05
190 1 5.415 5.415 18.05
191 1 3.61 5.415 19.855
192 1 5.415 3.61 19.855
193 1 3.61 7.22 0.0
194 1 5.415 9.025 0.0
195 1 3.61 9.025 1.805
196 1 5.415 7.22 1.805
197 1 3.61 7.22 3.61
198 1 5.415 9.025 3.61
199 1 3.61 9.025 5.415
200 1 5.415 7.22 5.415
201 1 3.61 7.22 7.22
202 1 5.415 9.025 7.22
203 1 3.61 9.025 9.025
204 1 5.415 7.22 9.025
205 1 3.61 7.22 10.83
206 1 5.415 9.025 10.83
207 1 3.61 9.025 12.635
208 1 5.415 7.22 12.635
209 1 3.61 7.22 14.44
210 1 5.415 9.025 14.44
211 1 3.61 9.025 16.245
212 1 5.415 7.22 16.245
213 1 3.61 7.22 18.05
214 1 5.415 9.025 18.05
215 1 3.61 9.025 19.855
216 1 5.415 7.22 19.855
217 1 3.61 10.83 0.0
218 1 5.415 12.635 0.0
219 1 3.61 12.635 1.805
220 1 5.415 10.83 1.805
221 1 3.61 10.83 3.61
222 1 5.415 12.635 3.61
223 1 3.61 12.635 5.415
224 1 5.415 10.83 5.415
225 1 3.61 10.83 7.22
226 1 5.415 12.635 7.22
227 1 3.61 12.635 9.025
228 1 5.415 10.83 9.025
229 1 3.61 10.83 10.83
230 1 5.415 12.635 10.83
231 1 3.61 12.635 12.635
232 1 5.415 10.83 12.635
233 1 3.61 10.83 14.44
234 1 5.415 12.635 14.44
235 1 3.61 12.635 16.245
236 1 5.415 10.83 16.245
237 1 3.61 10.83 18.05
238 1 5.415 12.635 18.05
239 1 3.61 12.635 19.855
240 1 5.415 10.83 19.855
241 1 3.61 14.44 0.0
242 1 5.415 16.245 0.0
243 1 3.61 16.245 1.805
244 1 5.415 14.44 1.805
245 1 3.61 14.44 3.61
246 1 5.415 16.245 3.61
247 1 3.61 16.245 5.415
248 1 5.415 14.44 5.415
249 1 3.61 14.44 7.22
250 1 5.415 16.245 7.22
251 1 3.61 16.245 9.025
252 1 5.415 14.44 9.025
253 1 3.61 14.44 10.83
254 1 5.415 16.245 10.83
255 1 3.61 16.245 12.635
256 1 5.415 14.44 12.635
257 1 3.61 14.44 14.44
258 1 5.415 16.245 14.44
259 1 3.61 16.245 16.245
260 1 5.415 14.44 16.245
261 1 3.61 14.44 18.05
262 1 5.415 16.245 18.05
263 1 3.61 16.245 19.855
264 1 5.415 14.44 19.855
265 1 3.61 18.05 0.0
266 1 5.415 19.855 0.0
267 1 3.61 19.855 1.805
268 1 5.415 18.05 1.805
269 1 3.61 18.05 3.61
270 1 5.415 19.855 3.61
271 1 3.61 19.855 5.415
272 1 5.415 18.05 5.415
273 1 3.61 18.05 7.22
274 1 5.415 19.855 7.22
275 1 3.61 19.855 9.025
276 1 5.415 18.05 9.025
277 1 3.61 18.05 10.83
278 1 5.415 19.855 10.83
279 1 3.61 19.855 12.635
280 1 5.415 18.05 12.635
281 1 3.61 18.05 14.44
282 1 5.415 19.855 14.44
283 1 3.61 19.855 16.245
284 1 5.415 18.05 16.245
285 1 3.61 18.05 18.05
286 1 5.415 19.855 18.05
287 1 3.61 19.855 19.855
288 1 5.415 18.05 19.855
289 1 7.22 0.0 0.0
290 1 9.025 1.805 0.0
291 1 7.22 1.805 1.805
292 1 9.025 0.0 1.805
293 1 7.22 0.0 3.61
294 1 9.025 1.805 3.61
295 1 7.22 1.805 5.415
296 1 9.025 0.0 5.415
297 1 7.22 0.0 7.22
298 1 9.025 1.805 7.22
299 1 7.22 1.805 9.025
300 1 9.025 0.0 9.025
301 1 7.22 0.0 10.83
302 1 9.025 1.805 10.83
303 1 7.22 1.805 12.635
304 1 9.025 0.0 12.635
305 1 7.22 0.0 14.44
306 1 9.025 1.805 14.44
307 1 7.22 1.805 16.245
308 1 9.025 0.0 16.245
309 1 7.22 0.0 18.05
310 1 9.025 1.805 18.05
311 1 7.22 1.805 19.855
312 1 9.025 0.0 19.855
313 1 7.22 3.61 0.0
314 1 9.025 5.415 0.0
315 1 7.22 5.415 1.805
316 1 9.025 3.61 1.805
317 1 7.22 3.61 3.61
318 1 9.025 5.415 3.61
319 1 7.22 5.415 5.415
320 1 9.025 3.61 5.415
321 1 7.22 3.61 7.22
322 1 9.025 5.415 7.22
323 1 7.22 5.415 9.025
324 1 9.025 3.61 9.025
325 1 7.22 3.61 10.83
326 1 9.025 5.415 10.83
327 1 7.22 5.415 12.635
328 1 9.025 3.61 12.635
329 1 7.22 3.61 14.44
330 1 9.025 5.415 14.44
331 1 7.22 5.415 16.245
332 1 9.025 3.61 16.245
333 1 7.22 3.61 18.05
334 1 9.025 5.415 18.05
335 1 7.22 5.415 19.855
336 1 9.025 3.61 19.855
337 1 7.22 7.22 0.0
338 1 9.025 9.025 0.0
339 1 7.22 9.025 1.805
340 1 9.025 7.22 1.805
341 1 7.22 7.22 3.61
342 1 9.025 9.025 3.61
343 1 7.22 9.025 5.415
344 1 9.025 7.22 5.415
345 1 7.22 7.22 7.22
346 1 9.025 9.025 7.22
347 1 7.22 9.025 9.025
348 1 9.025 7.22 9.025
349 1 7.22 7.22 10.83
350 1 9.025 9.025 10.83
351 1 7.22 9.025 12.635
352 1 9.025 7.22 12.635
353 1 7.22 7.22 14.44
354 1 9.025 9.025 14.44
355 1 7.22 9.025 16.245
356 1 9.025 7.22 16.245
357 1 7.22 7.22 18.05
358 1 9.025 9.025 18.05
359 1 7.22 9.025 19.855
360 1 9.025 7.22 19.855
361 1 7.22 10.83 0.0
362 1 9.025 12.635 0.0
363 1 7.22 12.635 1.805
364 1 9.025 10.83 1.805
365 1 7.22 10.83 3.61
366 1 9.025 12.635 3.61
367 1 7.22 12.635 5.415
368 1 9.025 10.83 5.415
369 1 7.22 10.83 7.22
370 1 9.025 12.635 7.22
371 1 7.22 12.635 9.025
372 1 9.025 10.83 9.025
373 1 7.22 10.83 10.83
374 1 9.025 12.635 10.83
375 1 7.22 12.635 12.635
376 1 9.025 10.83 12.635
377 1 7.22 10.83 14.44
378 1 9.025 12.635 14.44
379 1 7.22 12.635 16.245
380 1 9.025 10.83 16.245
381 1 7.22 10.83 18.05
382 1 9.025 12.635 18.05
383 1 7.22 12.635 19.855
384 1 9.025 10.83 19.855
385 1 7.22 14.44 0.0
386 1 9.025 16.245 0.0
387 1 7.22 16.245 1.805
388 1 9.025 14.44 1.805
389 1 7.22 14.44 3.61
390 1 9.025 16.245 3.61
391 1 7.22 16.245 5.415
392 1 9.025 14.44 5.415
393 1 7.22 14.44 7.22
394 1 9.025 16.245 7.22
395 1 7.22 16.245 9.025
396 1 9.025 14.44 9.025
397 1 7.22 14.44 10.83
398 1 9.025 16.245 10.83
399 1 7.22 16.245 12.635
400 1 9.025 14.44 12.635
401 1 7.22 14.44 14.44
402 1 9.025 16.245 14.44
403 1 7.22 16.245 16.245
404 1 9.025 14.44 16.245
405 1 7.22 14.44 18.05
406 1 9.025 16.245 18.05
407 1 7.22 16.245 19.855
408 1 9.025 14.44 19.855
409 1 7.22 18.05 0.0
410 1 9.025 19.855 0.0
411 1 7.22 19.855 1.805
412 1 9.025 18.05 1.805
413 1 7.22 18.05 3.61
414 1 9.025 19.855 3.61
415 1 7.22 19.855 5.415
416 1 9.025 18.05 5.415
417 1 7.22 18.05 7.22
418 1 9.025 19.855 7.22
419 1 7.22 19.855 9.025
420 1 9.025 18.05 9.025
421 1 7.22 18.05 10.83
422 1 9.025 19.855 10.83
423 1 7.22 19.855 12.635
424 1 9.025 18.05 12.635
425 1 7.22 18.05 14.44
426 1 9.025 19.855 14.44
427 1 7.22 19.855 16.245
428 1 9.025 18.05 16.245
429 1 7.22 18.05 18.05
430 1 9.025 19.855 18.05
431 1 7.22 19.855 19.855
432 1 9.025 18.05 19.855
433 1 10.83 0.0 0.0
434 1 12.635 1.805 0.0
435 1 10.83 1.805 1.805
436 1 12.635 0.0 1.805
437 1 10.83 0.0 3.61
438 1 12.635 1.805 3.61
439 1 10.83 1.805 5.415
440 1 12.635 0.0 5.415
441 1 10.83 0.0 7.22
442 1 12.635 1.805 7.22
443 1 10.83 1.805 9.025
444 1 12.635 0.0 9.025
445 1 10.83 0.0 10.83
446 1 12.635 1.805 10.83
447 1 10.83 1.805 12.635
448 1 12.635 0.0 12.635
449 1 10.83 0.0 14.44
450 1 12.635 1.805 14.44
451 1 10.83 1.805 16.245
452 1 12.635 0.0 16.245
453 1 10.83 0.0 18.05
454 1 12.635 1.805 18.05
455 1 10.83 1.805 19.855
456 1 12.635 0.0 19.855
457 1 10.83 3.61 0.0
458 1 12.635 5.415 0.0
459 1 10.83 5.415 1.805
460 1 12.635 3.61 1.805
461 1 10.83 3.61 3.61
462 1 12.635 5.415 3.61
463 1 10.83 5.415 5.415
464 1 12.635 3.61 5.415
465 1 10.83 3.61 7.22
466 1 12.635 5.415 7.22
467 1 10.83 5.415 9.025
468 1 12.635 3.61 9.025
469 1 10.83 3.61 10.83
470 1 12.635 5.415 10.83
471 1 10.83 5.415 12.635
472 1 12.635 3.61 12.635
473 1 10.83 3.61 14.44
474 1 12.635 5.415 14.44
475 1 10.83 5.415 16.245
476 1 12.635 3.61 16.245
477 1 10.83 3.61 18.05
478 1 12.635 5.415 18.05
479 1 10.83 5.415 19.855
480 1 12.635 3.61 19.855
481 1 10.83 7.22 0.0
482 1 12.635 9.025 0.0
483 1 10.83 9.025 1.805
484 1 12.635 7.22 1.805
485 1 10.83 7.22 3.61
486 1 12.635 9.025 3.61
487 1 10.83 9.025 5.415
488 1 12.635 7.22 5.415
489 1 10.83 7.22 7.22
490 1 12.635 9.025 7.22
491 1 10.83 9.025 9.025
492 1 12.635 7.22 9.025
493 1 10.83 7.22 10.83
494 1 12.635 9.025 10.83
495 1 10.83 9.025 12.635
496 1 12.635 7.22 12.635
497 1 10.83 7.22 14.44
498 1 12.635 9.025 14.44
499 1 10.83 9.025 16.245
500 1 12.635 7.22 16.245
501 1 10.83 7.22 18.05
502 1 12.635 9.025 18.05
503 1 10.83 9.025 19.855
504 1 12.635 7.22 19.855
505 1 10.83 10.83 0.0
506 1 12.635 12.635 0.0
507 1 10.83 12.635 1.805
508 1 12.635 10.83 1.805
509 1 10.83 10.83 3.61
510 1 12.635 12.635 3.61
511 1 10.83 12.635 5.415
512 1 12.635 10.83 5.415
513 1 10.83 10.83 7.22
514 1 12.635 12.635 7.22
515 1 10.83 12.635 9.025
516 1 12.635 10.83 9.025
517 1 10.83 10.83 10.83
518 1 12.635 12.635 10.83
519 1 10.83 12.635 12.635
520 1 12.635 10.83 12.635
521 1 10.83 10.83 14.44
522 1 12.635 12.635 14.44
523 1 10.83 12.635 16.245
524 1 12.635 10.83 16.245
525 1 10.83 10.83 18.05
526 1 12.635 12.635 18.05
527 1 10.83 12.635 19.855
528 1 12.635 10.83 19.855
529 1 10.83 14.44 0.0
530 1 12.635 16.245 0.0
531 1 10.83 16.245 1.805
532 1 12.635 14.44 1.805
533 1 10.83 14.44 3.61
534 1 12.635 16.245 3.61
535 1 10.83 16.245 5.415
536 1 12.635 14.44 5.415
537 1 10.83 14.44 7.22
538 1 12.635 16.245 7.22
539 1 10.83 16.245 9.025
540 1 12.635 14.44 9.025
541 1 10.83 14.44 10.83
542 1 12.635 16.245 10.83
543 1 10.83 16.245 12.635
544 1 12.635 14.44 12.635
545 1 10.83 14.44 14.44
546 1 12.635 16.245 14.44
547 1 10.83 16.245 16.245
548 1 12.635 14.44 16.245
549 1 10.83 14.44 18.05
550 1 12.635 16.245 18.05
551 1 10.83 16.245 19.855
552 1 12.635 14.44 19.855
553 1 10.83 18.05 0.0
554 1 12.635 19.855 0.0
555 1 10.83 19.855 1.805
556 1 12.635 18.05 1.805
557 1 10.83 18.05 3.61
558 1 12.635 19.855 3.61
559 1 10.83 19.855 5.415
560 1 12.635 18.05 5.415
561 1 10.83 18.05 7.22
562 1 12.635 19.855 7.22
563 1 10.83 19.855 9.025
564 1 12.635 18.05 9.025
565 1 10.83 18.05 10.83
566 1 12.635 19.855 10.83
567 1 10.83 19.855 12.635
568 1 12.635 18.05 12.635
569 1 10.83 18.05 14.44
570 1 12.635 19.855 14.44
571 1 10.83 19.855 16.245
572 1 12.635 18.05 16.245
573 1 10.83 18.05 18.05
574 1 12.635 19.855 18.05
575 1 10.83 19.855 19.855
576 1 12.635 18.05 19.855
577 1 14.44 0.0 0.0
578 1 16.245 1.805 0.0
579 1 14.44 1.805 1.805
580 1 16.245 0.0 1.805
581 1 14.44 0.0 3.61
582 1 16.245 1.805 3.61
583 1 14.44 1.805 5.415
584 1 16.245 0.0 5.415
585 1 14.44 0.0 7.22
586 1 16.245 1.805 7.22
587 1 14.44 1.805 9.025
588 1 16.245 0.0 9.025
589 1 14.44 0.0 10.83
590 1 16.245 1.805 10.83
591 1 14.44 1.805 12.635
592 1 16.245 0.0 12.635
593 1 14.44 0.0 14.44
594 1 16.245 1.805 14.44
595 1 14.44 1.805 16.245
596 1 16.245 0.0 16.245
597 1 14.44 0.0 18.05
598 1 16.245 1.805 18.05
599 1 14.44 1.805 19.855
600 1 16.245 0.0 19.855
601 1 14.44 3.61 0.0
602 1 16.245 5.415 0.0
603 1 14.44 5.415 1.805
604 1 16.245 3.61 1.805
605 1 14.44 3.61 3.61
606 1 16.245 5.415 3.61
607 1 14.44 5.415 5.415
608 1 16.245 3.61 5.415
609 1 14.44 3.61 7.22
610 1 16.245 5.415 7.22
611 1 14.44 5.415 9.025
612 1 16.245 3.61 9.025
613 1 14.44 3.61 10.83
614 1 16.245 5.415 10.83
615 1 14.44 5.415 12.635
616 1 16.245 3.61 12.635
617 1 14.44 3.61 14.44
618 1 16.245 5.415 14.44
619 1 14.44 5.415 16.245
620 1 16.245 3.61 16.245
621 1 14.44 3.61 18.05
622 1 16.245 5.415 18.05
623 1 14.44 5.415 19.855
624 1 16.245 3.61 19.855
625 1 14.44 7.22 0.0
626 1 16.245 9.025 0.0
627 1 14.44 9.025 1.805
628 1 16.245 7.22 1.805
629 1 14.44 7.22 3.61
630 1 16.245 9.025 3.61
631 1 14.44 9.025 5.415
632 1 16.245 7.22 5.415
633 1 14.44 7.22 7.22
634 1 16.245 9.025 7.22
635 1 14.44 9.025 9.025
636 1 16.245 7.22 9.025
637 1 14.44 7.22 10.83
638 1 16.245 9.025 10.83
639 1 14.44 9.025 12.635
640 1 16.245 7.22 12.635
641 1 14.44 7.22 14.44
642 1 16.245 9.025 14.44
643 1 14.44 9.025 16.245
644 1 16.245 7.22 16.245
645 1 14.44 7.22 18.05
646 1 16.245 9.025 18.05
647 1 14.44 9.025 19.855
648 1 16.245 7.22 19.855
649 1 14.44 10.83 0.0
650 1 16.245 12.635 0.0
651 1 14.44 12.635 1.805
652 1 16.245 10.83 1.805
653 1 14.44 10.83 3.61
654 1 16.245 12.635 3.61
655 1 14.44 12.635 5.415
656 1 16.245 10.83 5.415
657 1 14.44 10.83 7.22
658 1 16.245 12.635 7.22
659 1 14.44 12.635 9.025
660 1 16.245 10.83 9.025
661 1 14.44 10.83 10.83
662 1 16.245 12.635 10.83
663 1 14.44 12.635 12.635
664 1 16.245 10.83 12.635
665 1 14.44 10.83 14.44
666 1 16.245 12.635 14.44
667 1 14.44 12.635 16.245
668 1 16.245 10.83 16.245
669 1 14.44 10.83 18.05
670 1 16.245 12.635 18.05
671 1 14.44 12.635 19.855
672 1 16.245 10.83 19.855
673 1 14.44 14.44 0.0
674 1 16.245 16.245 0.0
675 1 14.44 16.245 1.805
676 1 16.245 14.44 1.805
677 1 14.44 14.44 3.61
678 1 16.245 16.245 3.61
679 1 14.44 16.245 5.415
680 1 16.245 14.44 5.415
681 1 14.44 14.44 7.22
682 1 16.245 16.245 7.22
683 1 14.44 16.245 9.025
684 1 16.245 14.44 9.025
685 1 14.44 14.44 10.83
686 1 16.245 16.245 10.83
687 1 14.44 16.245 12.635
688 1 16.245 14.44 12.635
689 1 14.44 14.44 14.44
690 1 16.245 16.245 14.44
691 1 14.44 16.245 16.245
692 1 16.245 14.44 16.245
693 1 14.44 14.44 18.05
694 1 16.245 16.245 18.05
695 1 14.44 16.245 19.855
696 1 16.245 14.44 19.855
697 1 14.44 18.05 0.0
698 1 16.245 19.855 0.0
699 1 14.44 19.855 1.805
700 1 16.245 18.05 1.805
701 1 14.44 18.05 3.61
702 1 16.245 19.855 3.61
703 1 14.44 19.855 5.415
704 1 16.245 18.05 5.415
705 1 14.44 18.05 7.22
706 1 16.245 19.855 7.22
707 1 14.44 19.855 9.025
708 1 16.245 18.05 9.025
709 1 14.44 18.05 10.83
710 1 16.245 19.855 10.83
711 1 14.44 19.855 12.635
712 1 16.245 18.05 12.635
713 1 14.44 18.05 14.44
714 1 16.245 19.855 14.44
715 1 14.44 19.855 16.245
716 1 16.245 18.05 16.245
717 1 14.44 18.05 18.05
718 1 16.245 19.855 18.05
719 1 14.44 19.855 19.855
720 1 16.245 18.05 19.855
721 1 18.05 0.0 0.0
722 1 19.855 1.805 0.0
723 1 18.05 1.805 1.805
724 1 19.855 0.0 1.805
725 1 18.05 0.0 3.61
726 1 19.855 1.805 3.61
727 1 18.05 1.805 5.415
728 1 19.855 0.0 5.415
729 1 18.05 0.0 7.22
730 1 19.855 1.805 7.22
731 1 18.05 1.805 9.025
732 1 19.855 0.0 9.025
733 1 18.05 0.0 10.83
734 1 19.855 1.805 10.83
735 1 18.05 1.805 12.635
736 1 19.855 0.0 12.635
737 1 18.05 0.0 14.44
738 1 19.855 1.805 14.44
739 1 18.05 1.805 16.245
740 1 19.855 0.0 16.245
741 1 18.05 0.0 18.05
742 1 19.855 1.805 18.05
743 1 18.05 1.805 19.855
744 1 19.855 0.0 19.855
745 1 18.05 3.61 0.0
746 1 19.855 5.415 0.0
747 1 18.05 5.415 1.805
748 1 19.855 3.61 1.805
749 1 18.05 3.61 3.61
750 1 19.855 5.415 3.61
751 1 18.05 5.415 5.415
752 1 19.855 3.61 5.415
753 1 18.05 3.61 7.22
754 1 19.855 5.415 7.22
755 1 18.05 5.415 9.025
756 1 19.855 3.61 9.025
757 1 18.05 3.61 10.83
758 1 19.855 5.415 10.83
759 1 18.05 5.415 12.635
760 1 19.855 3.61 12.635
761 1 18.05 3.61 14.44
762 1 19.855 5.415 14.44
763 1 18.05 5.415 16.245
764 1 19.855 3.61 16.245
765 1 18.05 3.61 18.05
766 1 19.855 5.415 18.05
767 1 18.05 5.415 19.855
768 1 19.855 3.61 19.855
769 1 18.05 7.22 0.0
770 1 19.855 9.025 0.0
771 1 18.05 9.025 1.805
772 1 19.855 7.22 1.805
773 1 18.05 7.22 3.61
774 1 19.855 9.025 3.61
775 1 18.05 9.025 5.415
776 1 19.855 7.22 5.415
777 1 18.05 7.22 7.22
778 1 19.855 9.025 7.22
779 1 18.05 9.025 9.025
780 1 19.855 7.22 9.025
781 1 18.05 7.22 10.83
782 1 19.855 9.025 10.83
783 1 18.05 9.025 12.635
784 1 19.855 7.22 12.635
785 1 18.05 7.22 14.44
786 1 19.855 9.025 14.44
787 1 18.05 9.025 16.245
788 1 19.855 7.22 16.245
789 1 18.05 7.22 18.05
790 1 19.855 9.025 18.05
791 1 18.05 9.025 19.855
792 1 19.855 7.22 19.855
793 1 18.05 10.83 0.0
794 1 19.855 12.635 0.0
795 1 18.05 12.635 1.805
796 1 19.855 10.83 1.805
797 1 18.05 10.83 3.61
798 1 19.855 12.635 3.61
799 1 18.05 12.635 5.415
800 1 19.855 10.83 5.415
801 1 18.05 10.83 7.22
802 1 19.855 12.635 7.22
803 1 18.05 12.635 9.025
804 1 19.855 10.83 9.025
805 1 18.05 10.83 10.83
806 1 19.855 12.635 10.83
807 1 18.05 12.635 12.635
808 1 19.855 10.83 12.635
809 1 18.05 10.83 14.44
810 1 19.855 12.635 14.44
811 1 18.05 12.635 16.245
812 1 19.855 10.83 16.245
813 1 18.05 10.83 18.05
814 1 19.855 12.635 18.05
815 1 18.05 12.635 19.855
816 1 19.855 10.83 19.855
817 1 18.05 14.44 0.0
818 1 19.855 16.245 0.0
819 1 18.05 16.245 1.805
820 1 19.855 14.44 1.805
821 1 18.05 14.44 3.61
822 1 19.855 16.245 3.61
823 1 18.05 16.245 5.415
824 1 19.855 14.44 5.415
825 1 18.05 14.44 7.22
826 1 19.855 16.245 7.22
827 1 18.05 16.245 9.025
828 1 19.855 14.44 9.025
829 1 18.05 14.44 10.83
830 1 19.855 16.245 10.83
831 1 18.05 16.245 12.635
832 1 19.855 14.44 12.635
833 1 18.05 14.44 14.44
834 1 19.855 16.245 14.44
835 1 18.05 16.245 16.245
836 1 19.855 14.44 16.245
837 1 18.05 14.44 18.05
838 1 19.855 16.245 18.05
839 1 18.05 16.245 19.855
840 1 19.855 14.44 19.855
841 1 18.05 18.05 0.0
842 1 19.855 19.855 0.0
843 1 18.05 19.855 1.805
844 1 19.855 18.05 1.805
845 1 18.05 18.05 3.61
846 1 19.855 19.855 3.61
847 1 18.05 19.855 5.415
848 1 19.855 18.05 5.415
849 1 18.05 18.05 7.22
850 1 19.855 19.855 7.22
851 1 18.05 19.855 9.025
852 1 19.855 18.05 9.025
853 1 18.05 18.05 10.83
854 1 19.855 19.855 10.83
855 1 18.05 19.855 12.635
856 1 19.855 18.05 12.635
857 1 18.05 18.05 14.44
858 1 19.855 19.855 14.44
859 1 18.05 19.855 16.245
860 1 19.855 18.05 16.245
861 1 18.05 18.05 18.05
862 1 19.855 19.855 18.05
863 1 18.05 19.855 19.855
864 1 19.855 18.05 19.855
865 1 21.66 0.0 0.0
866 1 23.465 1.805 0.0
867 1 21.66 1.805 1.805
868 1 23.465 0.0 1.805
869 1 21.66 0.0 3.61
870 1 23.465 1.805 3.61
871 1 21.66 1.805 5.415
872 1 23.465 0.0 5.415
873 1 21.66 0.0 7.22
874 1 23.465 1.805 7.22
875 1 21.66 1.805 9.025
876 1 23.465 0.0 9.025
877 1 21.66 0.0 10.83
878 1 23.465 1.805 10.83
879 1 21.66 1.805 12.635
880 1 23.465 0.0 12.635
881 1 21.66 0.0 14.44
882 1 23.465 1.805 14.44
883 1 21.66 1.805 16.245
884 1 23.465 0.0 16.245
885 1 21.66 0.0 18.05
886 1 23.465 1.805 18.05
887 1 21.66 1.805 19.855
888 1 23.465 0.0 19.855
889 1 21.66 3.61 0.0
890 1 23.465 5.415 0.0
891 1 21.66 5.415 1.805
892 1 23.465 3.61 1.805
893 1 21.66 3.61 3.61
894 1 23.465 5.415 3.61
895 1 21.66 5.415 5.415
896 1 23.465 3.61 5.415
897 1 21.66 3.61 7.22
898 1 23.465 5.415 7.22
899 1 21.66 5.415 9.025
900 1 23.465 3.61 9.025
901 1 21.66 3.61 10.83
902 1 23.465 5.415 10.83
903 1 21.66 5.415 12.635
904 1 23.465 3.61 12.635
905 1 21.66 3.61 14.44
906 1 23.465 5.415 14.44
907 1 21.66 5.415 16.245
908 1 23.465 3.61 16.245
909 1 21.66 3.61 18.05
910 1 23.465 5.415 18.05
911 1 21.66 5.415 19.855
912 1 23.465 3.61 19.855
913 1 21.66 7.22 0.0
914 1 23.465 9.025 0.0
915 1 21.66 9.025 1.805
916 1 23.465 7.22 1.805
917 1 21.66 7.22 3.61
918 1 23.465 9.025 3.61
919 1 21.66 9.025 5.415
920 1 23.465 7.22 5.415
921 1 21.66 7.22 7.22
922 1 23.465 9.025 7.22
923 1 21.66 9.025 9.025
924 1 23.465 7.22 9.025
925 1 21.66 7.22 10.83
926 1 23.465 9.025 10.83
927 1 21.66 9.025 12.635
928 1 23.465 7.22 12.635
929 1 21.66 7.22 14.44
930 1 23.465 9.025 14.44
931 1 21.66 9.025 16.245
932 1 23.465 7.22 16.245
933 1 21.66 7.22 18.05
934 1 23.465 9.025 18.05
935 1 21.66 9.025 19.855
936 1 23.465 7.22 19.855
937 1 21.66 10.83 0.0
938 1 23.465 12.635 0.0
939 1 21.66 12.635 1.805
940 1 23.465 10.83 1.805
941 1 21.66 10.83 3.61
942 1 23.465 12.635 3.61
943 1 21.66 12.635 5.415
944 1 23.465 10.83 5.415
945 1 21.66 10.83 7.22
946 1 23.465 12.635 7.22
947 1 21.66 12.635 9.025
948 1 23.465 10.83 9.025
949 1 21.66 10.83 10.83
950 1 23.465 12.635 10.83
951 1 21.66 12.635 12.635
952 1 23.465 10.83 12.635
953 1 21.66 10.83 14.44
954 1 23.465 12.635 14.44
955 1 21.66 12.635 16.245
956 1 23.465 10.83 16.245
957 1 21.66 10.83 18.05
958 1 23.465 12.635 18.05
959 1 21.66 12.635 19.855
960 1 23.465 10.83 19.855
961 1 21.66 14.44 0.0
962 1 23.465 16.245 0.0
963 1 21.66 16.245 1.805
964 1 23.465 14.44 1.805
965 1 21.66 14.44 3.61
966 1 23.465 16.245 3.61
967 1 21.66 16.245 5.415
968 1 23.465 14.44 5.415
969 1 21.66 14.44 7.22
970 1 23.465 16.245 7.22
971 1 21.66 16.245 9.025
972 1 23.465 14.44 9.025
973 1 21.66 14.44 10.83
974 1 23.465 16.245 10.83
975 1 21.66 16.245 12.635
976 1 23.465 14.44 12.635
977 1 21.66 14.44 14.44
978 1 23.465 16.245 14.44
979 1 21.66 16.245 16.245
980 1 23.465 14.44 16.245
981 1 21.66 14.44 18.05
982 1 23.465 16.245 18.05
983 1 21.66 16.245 19.855
984 1 23.465 14.44 19.855
985 1 21.66 18.05 0.0
986 1 23.465 19.855 0.0
987 1 21.66 19.855 1.805
988 1 23.465 18.05 1.805
989 1 21.66 18.05 3.61
990 1 23.465 19.855 3.61
991 1 21.66 19.855 5.415
992 1 23.465 18.05 5.415
993 1 21.66 18.05 7.22
994 1 23.465 19.855 7.22
995 1 21.66 19.855 9.025
996 1 23.465 18.05 9.025
997 1 21.66 18.05 10.83
998 1 23.465 19.855 10.83
999 1 21.66 19.855 12.635
1000 1 23.465 18.05 12.635
1001 1 21.66 18.05 14.44
1002 1 23.465 19.855 14.44
1003 1 21.66 19.855 16.245
1004 1 23.465 18.05 16.245
1005 1 21.66 18.05 18.05
1006 1 23.465 19.855 18.05
1007 1 21.66 19.855 19.855
1008 1 23.465 18.05 19.855
1009 1 25.27 0.0 0.0
1010 1 27.075 1.805 0.0
1011 1 25.27 1.805 1.805
1012 1 27.075 0.0 1.805
1013 1 25.27 0.0 3.61
1014 1 27.075 1.805 3.61
1015 1 25.27 1.805 5.415
1016 1 27.075 0.0 5.415
1017 1 25.27 0.0 7.22
1018 1 27.075 1.805 7.22
1019 1 25.27 1.805 9.025
1020 1 27.075 0.0 9.025
1021 1 25.27 0.0 10.83
1022 1 27.075 1.805 10.83
1023 1 25.27 1.805 12.635
1024 1 27.075 0.0 12.635
1025 1 25.27 0.0 14.44
1026 1 27.075 1.805 14.44
1027 1 25.27 1.805 16.245
1028 1 27.075 0.0 16.245
1029 1 25.27 0.0 18.05
1030 1 27.075 1.805 18.05
1031 1 25.27 1.805 19.855
1032 1 27.075 0.0 19.855
1033 1 25.27 3.61 0.0
1034 1 27.075 5.415 0.0
1035 1 25.27 5.415 1.805
1036 1 27.075 3.61 1.805
1037 1 25.27 3.61 3.61
1038 1 27.075 5.415 3.61
1039 1 25.27 5.415 5.415
1040 1 27.075 3.61 5.415
1041 1 25.27 3.61 7.22
1042 1 27.075 5.415 7.22
1043 1 25.27 5.415 9.025
1044 1 27.075 3.61 9.025
1045 1 25.27 3.61 10.83
1046 1 27.075 5.415 10.83
1047 1 25.27 5.415 12.635
1048 1 27.075 3.61 12.635
1049 1 25.27 3.61 14.44
1050 1 27.075 5.415 14.44
1051 1 25.27 5.415 16.245
1052 1 27.075 3.61 16.245
1053 1 25.27 3.61 18.05
1054 1 27.075 5.415 18.05
1055 1 25.27 5.415 19.855
1056 1 27.075 3.61 19.855
1057 1 25.27 7.22 0.0
1058 1 27.075 9.025 0.0
1059 1 25.27 9.025 1.805
1060 1 27.075 7.22 1.805
1061 1 25.27 7.22 3.61
1062 1 27.075 9.025 3.61
1063 1 25.27 9.025 5.415
1064 1 27.075 7.22 5.415
1065 1 25.27 7.22 7.22
1066 1 27.075 9.025 7.22
1067 1 25.27 9.025 9.025
1068 1 27.075 7.22 9.025
1069 1 25.27 7.22 10.83
1070 1 27.075 9.025 10.83
1071 1 25.27 9.025 12.635
1072 1 27.075 7.22 12.635
1073 1 25.27 7.22 14.44
1074 1 27.075 9.025 14.44
1075 1 25.27 9.025 16.245
1076 1 27.075 7.22 16.245
1077 1 25.27 7.22 18.05
1078 1 27.075 9.025 18.05
1079 1 25.27 9.025 19.855
1080 1 27.075 7.22 19.855
1081 1 25.27 10.83 0.0
1082 1 27.075 12.635 0.0
1083 1 25.27 12.635 1.805
1084 1 27.075 10.83 1.805
1085 1 25.27 10.83 3.61
1086 1 27.075 12.635 3.61
1087 1 25.27 12.635 5.415
1088 1 27.075 10.83 5.415
1089 1 25.27 10.83 7.22
1090 1 27.075 12.635 7.22
1091 1 25.27 12.635 9.025
1092 1 27.075 10.83 9.025
1093 1 25.27 10.83 10.83
1094 1 27.075 12.635 10.83
1095 1 25.27 12.635 12.635
1096 1 27.075 10.83 12.635
1097 1 25.27 10.83 14.44
1098 1 27.075 12.635 14.44
1099 1 25.27 12.635 16.245
1100 1 27.075 10.83 16.245
1101 1 25.27 10.83 18.05
1102 1 27.075 12.635 18.05
1103 1 25.27 12.635 19.855
1104 1 27.075 10.83 19.855
1105 1 25.27 14.44 0.0
1106 1 27.075 16.245 0.0
1107 1 25.27 16.245 1.805
1108 1 27.075 14.44 1.805
1109 1 25.27 14.44 3.61
1110 1 27.075 16.245 3.61
1111 1 25.27 16.245 5.415
1112 1 27.075 14.44 5.415
1113 1 25.27 14.44 7.22
1114 1 27.075 16.245 7.22
1115 1 25.27 16.245 9.025
1116 1 27.075 14.44 9.025
1117 1 25.27 14.44 10.83
1118 1 27.075 16.245 10.83
1119 1 25.27 16.245 12.635
1120 1 27.075 14.44 12.635
1121 1 25.27 14.44 14.44
1122 1 27.075 16.245 14.44
1123 1 25.27 16.245 16.245
1124 1 27.075 14.44 16.245
1125 1 25.27 14.44 18.05
1126 1 27.075 16.245 18.05
1127 1 25.27 16.245 19.855
1128 1 27.075 14.44 19.855
1129 1 25.27 18.05 0.0
1130 1 27.075 19.855 0.0
1131 1 25.27 19.855 1.805
1132 1 27.075 18.05 1.805
1133 1 25.27 18.05 3.61
1134 1 27.075 19.855 3.61
1135 1 25.27 19.855 5.415
1136 1 27.075 18.05 5.415
1137 1 25.27 18.05 7.22
1138 1 27.075 19.855 7.22
1139 1 25.27 19.855 9.025
1140 1 27.075 18.05 9.025
1141 1 25.27 18.05 10.83
1142 1 27.075 19.855 10.83
1143 1 25.27 19.855 12.635
1144 1 27.075 18.05 12.635
1145 1 25.27 18.05 14.44
1146 1 27.075 19.855 14.44
1147 1 25.27 19.855 16.245
1148 1 27.075 18.05 16.245
1149 1 25.27 18.05 18.05
1150 1 27.075 19.855 18.05
1151 1 25.27 19.855 19.855
1152 1 27.075 18.05 19.855
1153 1 28.88 0.0 0.0
1154 1 30.685 1.805 0.0
1155 1 28.88 1.805 1.805
1156 1 30.685 0.0 1.805
1157 1 28.88 0.0 3.61
1158 1 30.685 1.805 3.61
1159 1 28.88 1.805 5.415
1160 1 30.685 0.0 5.415
1161 1 28.88 0.0 7.22
1162 1 30.685 1.805 7.22
1163 1 28.88 1.805 9.025
1164 1 30.685 0.0 9.025
1165 1 28.88 0.0 10.83
1166 1 30.685 1.805 10.83
1167 1 28.88 1.805 12.635
1168 1 30.685 0.0 12.635
1169 1 28.88 0.0 14.44
1170 1 30.685 1.805 14.44
1171 1 28.88 1.805 16.245
1172 1 30.685 0.0 16.245
1173 1 28.88 0.0 18.05
1174 1 30.685 1.805 18.05
1175 1 28.88 1.805 19.855
1176 1 30.685 0.0 19.855
1177 1 28.88 3.61 0.0
1178 1 30.685 5.415 0.0
1179 1 28.88 5.415 1.805
1180 1 30.685 3.61 1.805
1181 1 28.88 3.61 3.61
1182 1 30.685 5.415 3.61
1183 1 28.88 5.415 5.415
1184 1 30.685 3.61 5.415
1185 1 28.88 3.61 7.22
1186 1 30.685 5.415 7.22
1187 1 28.88 5.415 9.025
1188 1 30.685 3.61 9.025
1189 1 28.88 3.61 10.83
1190 1 30.685 5.415 10.83
1191 1 28.88 5.415 12.635
1192 1 30.685 3.61 12.635
1193 1 28.88 3.61 14.44
1194 1 30.685 5.415 14.44
1195 1 28.88 5.415 16.245
1196 1 30.685 3.61 16.245
1197 1 28.88 3.61 18.05
1198 1 30.685 5.415 18.05
1199 1 28.88 5.415 19.855
1200 1 30.685 3.61 19.855
1201 1 28.88 7.22 0.0
1202 1 30.685 9.025 0.0
1203 1 28.88 9.025 1.805
1204 1 30.685 7.22 1.805
1205 1 28.88 7.22 3.61
1206 1 30.685 9.025 3.61
1207 1 28.88 9.025 5.415
1208 1 30.685 7.22 5.415
1209 1 28.88 7.22 7.22
1210 1 30.685 9.025 7.22
1211 1 28.88 9.025 9.025
1212 1 30.685 7.22 9.025
1213 1 28.88 7.22 10.83
1214 1 30.685 9.025 10.83
1215 1 28.88 9.025 12.635
1216 1 30.685 7.22 12.635
1217 1 28.88 7.22 14.44
1218 1 30.685 9.025 14.44
1219 1 28.88 9.025 16.245
1220 1 30.685 7.22 16.245
1221 1 28.88 7.22 18.05
1222 1 30.685 9.025 18.05
1223 1 28.88 9.025 19.855
1224 1 30.685 7.22 19.855
1225 1 28.88 10.83 0.0
1226 1 30.685 12.635 0.0
1227 1 28.88 12.635 1.805
1228 1 30.685 10.83 1.805
1229 1 28.88 10.83 3.61
1230 1 30.685 12.635 3.61
1231 1 28.88 12.635 5.415
1232 1 30.685 10.83 5.415
1233 1 28.88 10.83 7.22
1234 1 30.685 12.635 7.22
1235 1 28.88 12.635 9.025
1236 1 30.685 10.83 9.025
1237 1 28.88 10.83 10.83
1238 1 30.685 12.635 10.83
1239 1 28.88 12.635 12.635
1240 1 30.685 10.83 12.635
1241 1 28.88 10.83 14.44
1242 1 30.685 12.635 14.44
1243 1 28.88 12.635 16.245