LAMMPS data file via write_data, version 17 Apr 2024, timestep = 1000, units = metal

24000 atoms
2 atom types

-0.5772328239089755 210.92052714607618 xlo xhi
0 36.1 ylo yhi
0 36.1 zlo zhi

Masses

1 63.546
2 58.6934

Atoms # atomic

3 1 -0.18449587509718146 1.5481089997262958 1.6318505475110388 0 0 0
6 1 1.7531441894360742 1.5259655279092976 3.4353674367125255 0 0 0
44 1 1.5512748455945229 3.1875201344619066 1.6112891115994175 0 0 0
45 1 -0.2912513705691205 3.2657386235132364 3.345062061785711 0 0 0
403 1 3.5034898928867357 1.488860929718613 1.5891151111232014 0 0 0
445 1 3.3760803112482547 3.4569588717945456 3.335046350826385 0 0 0
406 1 5.352777260854546 1.486121016733454 3.441910178309213 0 0 0
444 1 5.2907116578169635 3.110440064410824 1.553336686067674 0 0 0
803 1 7.172061584819649 1.4673575252201236 1.425230311335757 0 0 0
845 1 7.040031143345161 3.421997300123908 3.4355075684520444 0 0 0
806 1 8.874411073881753 1.4254372786072793 3.402815537950622 0 0 0
844 1 8.891381017423154 3.2055432403782915 1.568106189178742 0 0 0
1203 1 10.631914746071075 1.4116216583185448 1.5644661260433324 0 0 0
1245 1 10.672037680713471 3.2322259176064727 3.4263562016277986 0 0 0
1206 1 12.441671876427197 1.3749439157825578 3.286898911863442 0 0 0
1244 1 12.409372506950564 3.1688745954211153 1.5559278550761788 0 0 0
1603 1 14.148070563896123 1.3725696194294479 1.6040878069070237 0 0 0
1606 1 16.06253638964537 1.5266268741299518 3.3890864687137974 0 0 0
1644 1 16.05837536644542 3.2411075836380134 1.506855033989609 0 0 0
1645 1 14.20099415239452 3.2432964868708196 3.344470575156624 0 0 0
2003 1 17.89771593756282 1.3699693816289982 1.515919458912527 0 0 0
2006 1 19.61157338005773 1.4526230734268613 3.207556655144003 0 0 0
2044 1 19.7108785033142 3.196490677257035 1.4874656838525189 0 0 0
2045 1 17.84490730730932 3.3260462431571063 3.250627258916264 0 0 0
2403 1 21.631582437733446 1.4781874726998998 1.4517592079697412 0 0 0
2445 1 21.455544303271683 3.2185594115455114 3.3243438188388144 0 0 0
2406 1 23.22742633674766 1.456013439830491 3.2668339400095197 0 0 0
2444 1 23.3857725334104 3.321654129489779 1.3852359512001573 0 0 0
2803 1 25.147924974504395 1.510699220129311 1.344917337555548 0 0 0
2845 1 25.127764564844963 3.1632675298464035 3.2862155932473742 0 0 0
2806 1 26.941568382262595 1.5129075425359753 3.296901418328386 0 0 0
2844 1 26.96893109506782 3.3959656611437 1.5084540331225635 0 0 0
3203 1 28.70311299148239 1.5673742152923442 1.2556484717067313 0 0 0
3245 1 28.81689570427781 3.214563992683326 3.1524709730685334 0 0 0
3206 1 30.49823154407021 1.3658669829938768 3.181471043866321 0 0 0
3244 1 30.675755171115664 3.278546432919394 1.4644475109188893 0 0 0
3603 1 32.50702876521421 1.4925266906319095 1.4621877395370142 0 0 0
3645 1 32.4709840337568 3.2176941378903687 3.2699688059303935 0 0 0
3606 1 34.201248959613665 1.3666069494461022 3.265298674878085 0 0 0
3644 1 34.24253430425437 3.1614146405440615 1.3729851015963008 0 0 0
4003 1 36.12527829661547 1.4347567710754425 1.4955955581482945 0 0 0
4045 1 35.88906299990771 3.1861978927156156 3.4860759479550096 0 0 0
4006 1 37.86854173438028 1.3309500661892715 3.5357286844168856 0 0 0
4044 1 37.74531414065224 3.352940713729905 1.522531339608848 0 0 0
4403 1 39.579933663744626 1.6344773392779455 1.5262352814950981 0 0 0
4445 1 39.50252835051419 3.188978938876179 3.3618786146543993 0 0 0
4406 1 41.53593156761122 1.6052141564255755 3.379693838324439 0 0 0
4444 1 41.29623686177682 3.322291084908355 1.4463263384284464 0 0 0
4803 1 43.149726691378255 1.6653617839861983 1.57634967403765 0 0 0
4845 1 43.20079922961491 3.337244713456171 3.3294327856712935 0 0 0
4806 1 45.042061675598305 1.4970008516921602 3.244425421405841 0 0 0
4844 1 45.09275426033989 3.3657879987354207 1.4468380861888415 0 0 0
5203 1 46.87014932344889 1.5419339080029044 1.4693659805753632 0 0 0
5245 1 46.83509228053787 3.163668497512093 3.467182167749696 0 0 0
5206 1 48.61073218641211 1.4400445040880019 3.3193464424603696 0 0 0
5244 1 48.76826164063636 3.3013782545556905 1.7372721509019786 0 0 0
5603 1 50.53222065043606 1.4621496870235697 1.483945618265641 0 0 0
5645 1 50.41502686841426 3.2361401680842565 3.5847082547610385 0 0 0
5606 1 52.266026104846276 1.3425464563336953 3.4893387635239965 0 0 0
5644 1 52.24670864510495 3.3270623298421023 1.6312534356648747 0 0 0
6003 1 53.987820040849556 1.5105796468618184 1.5768472091194394 0 0 0
6045 1 54.103299910957254 3.2803607469751372 3.441217901134478 0 0 0
6006 1 55.86771521666959 1.406489361766559 3.347967638846905 0 0 0
6044 1 55.854089107155886 3.272771156280918 1.6006119191345598 0 0 0
6403 1 57.67361725300665 1.4383799780523654 1.5852077305438972 0 0 0
6445 1 57.71133110574162 3.224667331281095 3.3534389161438005 0 0 0
6406 1 59.49744543781523 1.5192973344953191 3.3790025364851086 0 0 0
6444 1 59.56742648432742 3.282061378587401 1.5173233437565108 0 0 0
6803 1 61.352929532460436 1.53754682217587 1.4878639872154047 0 0 0
6845 1 61.47583367104108 3.2157287857610917 3.3446810326044707 0 0 0
6806 1 63.45574110545087 1.4380089485236351 3.386328060954191 0 0 0
6844 1 63.280419917151576 3.217803046198432 1.675668325670231 0 0 0
7203 1 65.16694196227536 1.5508223281577098 1.498444069355558 0 0 0
7245 1 65.19329951431884 3.291595692945764 3.3898677783772753 0 0 0
7206 1 66.9862182932966 1.6159773964703201 3.3213966289206196 0 0 0
7244 1 66.95660197039703 3.323620758807259 1.5743015745837672 0 0 0
7603 1 68.75309509382211 1.6202074674502656 1.6414673782852347 0 0 0
7645 1 68.74261472493812 3.295327603904381 3.442142135589405 0 0 0
7606 1 70.61642249299395 1.5055666571581288 3.3098214677281304 0 0 0
7644 1 70.50319912241139 3.2809251350674162 1.443158375463048 0 0 0
8003 1 72.53217709821212 1.4683619110625936 1.5755840735954716 0 0 0
8045 1 72.34147561754078 3.220971541164872 3.50700374600598 0 0 0
8006 1 74.38627109847383 1.4819867515185747 3.3666644878678893 0 0 0
8044 1 74.30473408905227 3.3262633250065763 1.5872173031226777 0 0 0
8403 1 76.07524022106476 1.4400717312575304 1.4623008067834913 0 0 0
8445 1 76.02186377434984 3.4094394995409614 3.3583932839928 0 0 0
8406 1 77.91804432251489 1.676155073115923 3.268888879124942 0 0 0
8444 1 77.72957216242392 3.323955588578351 1.5302097180305372 0 0 0
8803 1 79.654234705609 1.3684206154672873 1.5696201233813798 0 0 0
8845 1 79.78515375051381 3.3650490402222855 3.2098050736729014 0 0 0
8806 1 81.6575672120344 1.55363716929327 3.1869854342126995 0 0 0
8844 1 81.59302942320686 3.2874509708438038 1.5594368353659256 0 0 0
9203 1 83.52271968225274 1.507335532386053 1.568728809948036 0 0 0
9245 1 83.4156996366015 3.3184847082188123 3.4357030501052277 0 0 0
9244 1 85.33426000858367 3.2665398075152385 1.635820581271486 0 0 0
9206 1 85.36559279742264 1.5208454217507645 3.308914045269326 0 0 0
9603 1 87.28965275192346 1.4665478560250247 1.5025716787511767 0 0 0
9645 1 87.20483450585424 3.260127624301155 3.4896458200871763 0 0 0
9606 1 88.91074380820476 1.4155127114350352 3.2674087771567635 0 0 0
9644 1 88.8472163632223 3.260974995015738 1.4914116609839743 0 0 0
10003 1 90.86807208363302 1.3147589370623853 1.6074431003006693 0 0 0
10045 1 90.79784301478823 3.3019422957177733 3.199092657248106 0 0 0
10006 1 92.59062716332626 1.485770009334203 3.3818470719318197 0 0 0
10044 1 92.76726176539331 3.219295336507108 1.5361683674465283 0 0 0
10403 1 94.63909915949796 1.4396689462054677 1.6406574307915014 0 0 0
10445 1 94.52909822449898 3.1942139350000964 3.2725022824123298 0 0 0
10406 1 96.58146337544723 1.606329213541532 3.3304733337099313 0 0 0
10444 1 96.42446595467202 3.3049492581975803 1.5420357321599243 0 0 0
10803 1 98.53280945790195 1.4215369693377873 1.4826128984029294 0 0 0
10845 1 98.2412959371406 3.450042509058584 3.3429325614373733 0 0 0
10806 1 99.96347555515521 1.6836840583787134 3.58650341766073 0 0 0
10844 1 100.03806127641786 3.4153562716799923 1.4356477410067143 0 0 0
11203 1 101.9729335292874 1.4738782759731397 1.333606996462837 0 0 0
11245 1 101.87478763487636 3.341818888213306 3.3108705353102876 0 0 0
11206 1 103.76433722510961 1.544517095337115 3.4179976996522963 0 0 0
11244 1 103.65101219213535 3.380285628588198 1.4787380423446703 0 0 0
11645 1 105.66166772921976 3.435236159178034 3.3458215748704094 0 0 0
11603 1 105.60268418107857 1.5961470432507818 1.558673518909373 0 0 0
11606 1 107.58064727608787 1.5119515640907164 3.395486867155049 0 0 0
11644 1 107.38734873879827 3.3850246054125686 1.3458486814527304 0 0 0
12003 2 109.16616263249622 1.623342709207665 1.5249850766664448 0 0 0
12045 2 109.36604805856761 3.354668458068313 3.41817916324775 0 0 0
12006 2 110.89561277271486 1.549418216719599 3.3104773790805426 0 0 0
12044 2 110.98390399670176 3.348075941451747 1.669486304502751 0 0 0
12403 2 112.69468240761607 1.641019459283811 1.519434156105657 0 0 0
12445 2 112.66286390527394 3.3688293830128146 3.4915839492394447 0 0 0
12406 2 114.39926764851499 1.5916588128791396 3.3809422461582197 0 0 0
12444 2 114.49806592754507 3.28789672947653 1.6605234045863222 0 0 0
12803 2 116.1689451726199 1.474093618706233 1.7137444858590967 0 0 0
12845 2 116.22845128384192 3.302035045614424 3.489325410244174 0 0 0
12806 2 118.02761160895798 1.4880824705428481 3.4667824646883356 0 0 0
12844 2 117.85266295049834 3.3628710200680794 1.6142793261467958 0 0 0
13203 2 119.6476157112904 1.6491450912610697 1.620434683547277 0 0 0
13245 2 119.735564317125 3.4854737982659785 3.403809797070795 0 0 0
13206 2 121.37791354221137 1.5690101223718624 3.3430141181719772 0 0 0
13244 2 121.54306557707353 3.5187378111953587 1.6588491732687956 0 0 0
13603 2 123.11786758741748 1.5905378985871719 1.6134599429181569 0 0 0
13645 2 123.07934809495829 3.3722834888841207 3.3043592578910106 0 0 0
13606 2 124.92715372405699 1.7196344510657293 3.329675921502259 0 0 0
13644 2 124.91900824802242 3.5081322726620066 1.5625217063343184 0 0 0
14003 2 126.6742844668524 1.6162687812888483 1.5947089375100936 0 0 0
14045 2 126.60564232555272 3.5793874538372465 3.3175988825897345 0 0 0
14006 2 128.35175747700262 1.6909332221860192 3.3214874164824004 0 0 0
14044 2 128.2773111536888 3.5738197713710393 1.5044958921370715 0 0 0
14403 2 130.0485532082079 1.6725947456110246 1.5003052818817033 0 0 0
14445 2 130.01877299460483 3.498471734298723 3.284702062462991 0 0 0
14406 2 131.7154038695174 1.789871549073987 3.4341459569730186 0 0 0
14444 2 131.76692228379653 3.5518839472453543 1.6893953656507303 0 0 0
14404 2 131.77958514458567 36.03758598535231 1.658378188111349 0 -1 0
14803 2 133.52113136945175 1.6690436455133106 1.6488240323742636 0 0 0
14845 2 133.35219728585602 3.5635004991415262 3.3659756390070927 0 0 0
14806 2 135.2095437979294 1.700745285873999 3.3976473039355786 0 0 0
14844 2 135.170273888552 3.5703446062414295 1.5658296513386074 0 0 0
15203 2 136.9377416051266 1.6889329476991384 1.4880056987293269 0 0 0
15245 2 136.85263306465794 3.52169579226418 3.4676983451297905 0 0 0
15206 2 138.6437293571149 1.7047007638368998 3.3873680492944866 0 0 0
15244 2 138.6495331320089 3.7279454162086956 1.6852320322762508 0 0 0
15603 2 140.37936715017315 1.7967266250626277 1.6016954918980382 0 0 0
15645 2 140.34564872267464 3.4805985460163718 3.4185443058233314 0 0 0
15606 2 142.20462226141933 1.7671675152304445 3.394869068994178 0 0 0
15644 2 142.1293345845975 3.5045252130654347 1.5435159728091177 0 0 0
16003 2 143.97584485585492 1.745128617854896 1.5325947522174779 0 0 0
16045 2 143.90802824818917 3.612691348968466 3.391925545391075 0 0 0
16006 2 145.5632534392445 1.7784086108478316 3.464832648300714 0 0 0
16044 2 145.61034312503187 3.5769112260200133 1.7005093687958976 0 0 0
16403 2 147.25966513580047 1.6382877290572524 1.7234607911098108 0 0 0
16445 2 147.34755234151032 3.466506526482213 3.6288279254212292 0 0 0
16406 2 149.10035756463083 1.668597226703674 3.484817403513639 0 0 0
16444 2 148.94036452805153 3.4328917120135327 1.7808921807009992 0 0 0
16803 2 150.88129130432907 1.7408341822175681 1.7332177306997403 0 0 0
16845 2 150.6913214662702 3.584721546303037 3.5353764375471903 0 0 0
16806 2 152.47820904840825 1.7398326250886924 3.516769168322846 0 0 0
16844 2 152.432144133747 3.6811156055491603 1.8687185834916507 0 0 0
17203 2 154.29569563498782 1.602998979540695 1.7142733626323885 0 0 0
17245 2 154.28377662110776 3.4563582805339266 3.437181992018792 0 0 0
17206 2 155.89791409468788 1.6708116913625746 3.512862603723129 0 0 0
17244 2 155.87479071052448 3.4562798031551667 1.6106324050080432 0 0 0
17645 2 157.53637848065353 3.60580499524331 3.51716918338386 0 0 0
17603 2 157.50699940912577 1.585884680940521 1.6208122677471102 0 0 0
17202 2 155.87153949020694 1.4824421771688456 35.923874691401956 0 0 -1
17606 2 159.17740122552323 1.7103127003614444 3.4986628047359347 0 0 0
17644 2 159.31986775158703 3.5927663304995097 1.6216841720841106 0 0 0
18003 2 160.98633988469604 1.6825520953698971 1.6393000772622337 0 0 0
18045 2 160.9570162401876 3.543979630787105 3.445747242524386 0 0 0
18044 2 162.7541946089937 3.542050199533847 1.6876271349763472 0 0 0
18006 2 162.6481344428784 1.7108073927219225 3.456183517320424 0 0 0
18403 2 164.42009958802407 1.7346878493870985 1.6523640150251055 0 0 0
18406 2 166.11902545277286 1.7889113696540764 3.590709303014592 0 0 0
18444 2 166.10032594999333 3.5976903537563043 1.7731624962648904 0 0 0
18445 2 164.35396925295555 3.622789081634529 3.447066783798941 0 0 0
18404 2 166.09456703593537 0.025094616423225462 1.7760158989048198 0 0 0
18402 2 166.00948658734202 1.7607819913828957 36.066582187036616 0 0 -1
18803 2 167.8056798136762 1.7253457071648295 1.619383966859195 0 0 0
18845 2 167.76775523663431 3.675480083757732 3.4253327018515027 0 0 0
18806 2 169.50144831028533 1.9109170394914483 3.4511925881075443 0 0 0
18844 2 169.4522314843953 3.737060227786291 1.614023802765417 0 0 0
19203 2 171.1516175649359 1.8788875711619084 1.600809432197665 0 0 0
19245 2 171.26010425396944 3.569117662495427 3.4519805443918905 0 0 0
19241 2 171.1493638989082 3.5409152088890283 35.98695951163657 0 0 -1
18805 2 167.9643062924481 36.04908242157618 3.2549641269014202 0 -1 0
18804 2 169.5852176214916 36.05620154082659 1.60562394552448 0 -1 0
19206 2 172.76264259773166 1.799605097450623 3.4228371004960167 0 0 0
19244 2 172.92601245279914 3.587866289735408 1.7398758610136267 0 0 0
19603 2 174.70485487434416 1.9537967147950288 1.8272995416505695 0 0 0
19645 2 174.6811599268386 3.6278291066125634 3.6193615441236813 0 0 0
19605 2 174.6557679317571 36.00677714802677 3.4604784360918397 0 -1 0
19601 2 174.64452518164595 0.017774002447057357 36.02572451588387 0 0 -1
19606 2 176.46386804083292 1.827405210952805 3.5245743971783092 0 0 0
19644 2 176.34887780522834 3.5863944762240343 1.5748123017931908 0 0 0
20003 2 178.10875972868547 1.7926122468548311 1.6568156033123498 0 0 0
20044 2 179.80078335828387 3.528273645233468 1.7465809122857128 0 0 0
20045 2 178.1381349959996 3.642215494822926 3.5868646363615255 0 0 0
20006 2 179.7417791480643 1.8602849728754214 3.465367500962249 0 0 0
20004 2 179.7359216895339 0.06065092262448813 1.7588053570270348 0 0 0
19604 2 176.31482193239978 36.00526442849983 1.7201628510882998 0 -1 0
20005 2 178.0803446810978 36.09097056557652 3.5480710032244134 0 -1 0
20002 2 179.8052243342505 1.804898583349891 36.021884867474995 0 0 -1
19602 2 176.4716905453481 1.7580165356848283 36.01717656621036 0 0 -1
20001 2 178.12250428364283 36.05603584342466 35.933834796306165 0 -1 -1
20403 2 181.45564606533372 1.7811925128266177 1.7777906621416097 0 0 0
20406 2 183.27747514022337 1.7602886724794473 3.49759663545678 0 0 0
20444 2 183.17702997190733 3.6660493062072725 1.729755731317952 0 0 0
20445 2 181.53186296008954 3.5961815101467405 3.6342687394220783 0 0 0
20441 2 181.50686237813355 3.6514244939842917 0.01737355550255067 0 0 0
20401 2 181.59684265629872 36.06594256265582 0.0954816477608494 0 -1 0
20803 2 185.01945693781863 1.8771729244968451 1.7008015495563529 0 0 0
20845 2 184.99062907006382 3.576885100572692 3.418259588721989 0 0 0
20806 2 186.66787593663705 1.8314516537391121 3.4993861145226925 0 0 0
20844 2 186.7881746606135 3.6378195814931287 1.7421344705926303 0 0 0
21203 2 188.31187804188298 1.8754524200858869 1.62455954698563 0 0 0
21245 2 188.41710655747298 3.5373053219317683 3.740944995325715 0 0 0
20805 2 185.11857902223696 36.07389870550567 3.48598873844335 0 -1 0
20804 2 186.56231339545477 0.032147524246410375 1.665368557013225 0 0 0
21205 2 188.3693726170056 0.052395014733371215 3.448200431627393 0 0 0
20841 2 184.88081277526155 3.6213480273311354 36.069657876952405 0 0 -1
20801 2 184.93959093541454 36.07364982757407 36.078477470701 0 -1 -1
21206 2 190.11442680710766 1.8061046883273641 3.6122505020429885 0 0 0
21244 2 189.94793217039447 3.5718382910590445 1.7703518154216271 0 0 0
21603 2 191.6683803042856 1.8080733781063716 1.7487719198105411 0 0 0
21645 2 191.7355740537417 3.6193662037359338 3.610316094484356 0 0 0
21204 2 190.08425693375503 36.04460195409796 1.5989717209896297 0 -1 0
21644 2 193.38007593911632 3.583991693908819 1.6859515207446554 0 0 0
21606 2 193.54905051512898 1.8051631081024375 3.449539361665236 0 0 0
22003 2 195.17783590965513 1.8541382995835491 1.67519916957455 0 0 0
22006 2 196.85926583680578 1.8132327396181567 3.5472256154892388 0 0 0
22044 2 196.9851953365343 3.6083798726662892 1.7016360367598091 0 0 0
22045 2 195.26664045796505 3.57064491824432 3.5424655706005534 0 0 0
22004 2 196.84603694244396 0.018653222442015425 1.7980012394085487 0 0 0
22041 2 195.3054346824011 3.7114772897438386 35.99611786253429 0 0 -1
22002 2 196.93146175147916 1.9085333831091353 36.02182947232006 0 0 -1
22403 2 198.57213670313172 1.701391089895058 1.8444190218377265 0 0 0
22406 2 200.398433076507 1.9270783818327701 3.439259307781933 0 0 0
22444 2 200.32827232773263 3.6993926740865097 1.6508828260042654 0 0 0
22445 2 198.61107999627006 3.564618479490107 3.482966553969756 0 0 0
22404 2 200.5437929915697 36.08100111370184 1.8196812570853984 0 -1 0
22405 2 198.66249306510858 0.16838323164901997 3.5336638824719007 0 0 0
22803 2 202.1890727168998 2.015673027671549 1.7833270252031026 0 0 0
22845 2 202.0830461243307 3.773617029260721 3.565194889297609 0 0 0
22805 2 202.27814341816344 0.10692456064913412 3.570770440803864 0 0 0
22441 2 198.72067041607173 3.594095108040011 36.05897143239285 0 0 -1
22806 2 203.8036334475694 1.9163264151524153 3.547604428436359 0 0 0
22844 2 203.82599096803065 3.7925854100439738 1.6801037044476665 0 0 0
23203 2 205.5753854128692 2.00656694789668 1.8256928017153229 0 0 0
23245 2 205.41531195933496 3.8017381707040294 3.6239023711793967 0 0 0
22804 2 203.84080131884514 36.09939394146157 1.7262315462857798 0 -1 0
23205 2 205.49456411161535 0.07479309412543825 3.50270430064296 0 0 0
23206 2 207.21335471489857 1.9422747257614363 3.6290357988040896 0 0 0
23244 2 207.1905784192011 3.773440954981412 1.8776693551408374 0 0 0
23603 2 208.83930436885464 1.8512911820938502 1.690916752474092 0 0 0
23606 2 210.47221544610525 1.9597447141258775 3.482856294209981 0 0 0
23644 2 210.66334918577647 3.6958576102382366 1.7211314653678744 0 0 0
23645 2 208.92786843042117 3.594562781125352 3.4890018720843203 0 0 0
23604 2 210.61685793668352 0.05222619836383729 1.7530083290230662 0 0 0
23605 2 208.920310049579 0.08853883930593005 3.597643521609077 0 0 0
23202 2 207.26178595327173 1.8845394107564344 35.998931521738065 0 0 -1
43 1 -0.21000049086213748 5.132761212870466 1.3495649278850173 0 0 0
46 1 1.4279034350359894 5.205987588851402 3.4819108097161124 0 0 0
84 1 1.6283421094757464 6.910934069262473 1.5543582870496324 0 0 0
85 1 -0.330023837406867 6.880417940422046 3.4178701403020093 0 0 0
443 1 3.3060169890559954 5.077188846984567 1.632164352497242 0 0 0
485 1 3.4446596027010083 6.952606885734962 3.296880489755183 0 0 0
83 1 -0.20285089605553977 8.708557670973487 1.4763387372433499 0 0 0
483 1 3.4967888066322206 8.672219209139804 1.4263643101918673 0 0 0
86 1 1.483248431689871 8.529876172598579 3.355478214666139 0 0 0
446 1 5.117847164131593 5.1695322954203515 3.293047862018662 0 0 0
484 1 5.214584412694714 6.918764025065734 1.4095413799801508 0 0 0
843 1 7.064712400469981 4.997426162141073 1.4210740044336196 0 0 0
885 1 6.975492670899829 6.936472258181292 3.29608988583231 0 0 0
883 1 7.058443111407805 8.648284955659015 1.397126598236821 0 0 0
486 1 5.239682741757772 8.76379664763398 3.1362013796276935 0 0 0
846 1 8.964707436419374 5.154250624683072 3.3429781194040795 0 0 0
884 1 8.848969925582182 6.705170106593504 1.4808404464166263 0 0 0
1243 1 10.652334847045719 4.960942265848499 1.433067317938935 0 0 0
1285 1 10.62678676490911 6.875629451267645 3.2001183464568643 0 0 0
1283 1 10.64086496372953 8.668789889384666 1.4933670086170359 0 0 0
886 1 8.739918585315694 8.538307867122644 3.157341427398609 0 0 0
1286 1 12.405765259993862 8.468343754177816 3.3184382973036723 0 0 0
1284 1 12.46890668181628 6.851183399831016 1.4522117179124385 0 0 0
1246 1 12.414514670548892 5.090166672968319 3.2669486176812623 0 0 0
1643 1 14.164270706339067 5.020565762031108 1.5364355140514956 0 0 0
1646 1 15.967514891027752 4.957186535173442 3.185436493002163 0 0 0
1684 1 16.159184797807512 6.702000447542735 1.352055631493654 0 0 0
1685 1 14.278504380831304 6.738569913760753 3.237736716788953 0 0 0
1683 1 14.315287371092898 8.63518253715067 1.4197530629768422 0 0 0
1686 1 16.054886878792725 8.484804243673443 3.1229019449702613 0 0 0
2043 1 18.05205221999686 5.094747049766376 1.4840039850918416 0 0 0
2046 1 19.62597366868873 5.044961290586806 3.2843774196409226 0 0 0
2084 1 19.806247914492932 6.819456701671457 1.5495259079434824 0 0 0
2085 1 17.807919944406564 6.751426745513343 3.194933867496145 0 0 0
2086 1 19.70463859393185 8.55131803266615 3.2812576828821975 0 0 0
2083 1 17.96412664515057 8.549439578090091 1.354149075742054 0 0 0
2443 1 21.51564846747905 5.008623192962337 1.5344686201426683 0 0 0
2485 1 21.76186008165056 6.808652791856793 3.2236019188834155 0 0 0
2446 1 23.278527025828666 4.9526410720148695 3.2529423473945362 0 0 0
2484 1 23.361160446249063 6.824830969240073 1.351628037060866 0 0 0
2483 1 21.63881183555353 8.636891392208723 1.4144590161314605 0 0 0
2486 1 23.443485154637976 8.585436648305544 3.2057983088489275 0 0 0
2843 1 25.14071203197146 5.044445585333855 1.5066077967896614 0 0 0
2885 1 25.231293479407057 6.915433238875311 3.170290252144542 0 0 0
2883 1 25.08561366641106 8.722779736246135 1.3846757428012553 0 0 0
2846 1 26.97374100865767 5.029572417602574 3.2870956560282867 0 0 0
2884 1 26.89903114388297 6.831493942020629 1.4297342052615476 0 0 0
3243 1 28.779956447505235 5.013672748367531 1.3279306497423837 0 0 0
3285 1 28.79815557210562 6.850934559367893 3.306068416669476 0 0 0
3283 1 28.77214093088899 8.616200468021031 1.5136936953094962 0 0 0
2886 1 27.004326997983362 8.733002895704308 3.263271703600632 0 0 0
3246 1 30.589113881681612 4.976401989711249 3.2450083965522256 0 0 0
3284 1 30.582521307781946 6.683328228004603 1.4534775314870754 0 0 0
3643 1 32.5317265520555 5.077271693311358 1.5403541319201985 0 0 0
3685 1 32.34741478072451 6.906109402984318 3.1193147704579514 0 0 0
3286 1 30.670720837071865 8.718257377875313 3.3385440478577 0 0 0
3683 1 32.38254346226031 8.646959054171521 1.4933978146315896 0 0 0
3684 1 34.25230900020516 6.897487593090935 1.4504411161624258 0 0 0
3686 1 34.25708043028077 8.664420757046093 3.4053143667157326 0 0 0
3646 1 34.22567236436163 5.024239679194269 3.4632551702249 0 0 0
4043 1 35.99746136903935 5.0666514714328175 1.6471726787542647 0 0 0
4085 1 36.054922530887964 6.874953658625533 3.5232778514602923 0 0 0
4083 1 35.89185969508627 8.596354810426096 1.6375732904121205 0 0 0
4046 1 37.79925286040802 5.11128272857189 3.4697916644081377 0 0 0
4084 1 37.75176484612635 6.855444664458222 1.6117839402831253 0 0 0
4086 1 37.87543555377438 8.75825422285645 3.3874713255485323 0 0 0
4443 1 39.48138332279125 5.0996746745492425 1.5045946924159346 0 0 0
4485 1 39.59389115525684 6.930352070478654 3.382560510813159 0 0 0
4446 1 41.42674996459104 4.943413561509791 3.186348660617827 0 0 0
4484 1 41.40735298300966 6.8419545572896565 1.4490335528867824 0 0 0
4486 1 41.49544106744618 8.786743077455938 3.1990967926572527 0 0 0
4483 1 39.61597061421183 8.550595739610005 1.485061246664262 0 0 0
4843 1 43.213336987646116 5.112631397129133 1.4715462643191644 0 0 0
4885 1 43.159365840860595 6.731954652048143 3.365403230332627 0 0 0
4846 1 44.986317592687456 5.022694980208306 3.379460438217254 0 0 0
4884 1 45.10748160719853 6.820486646418866 1.652710687890432 0 0 0
4886 1 45.11687835119145 8.719310848886519 3.452210269135715 0 0 0
4883 1 43.19034738896877 8.602886093881748 1.5388461536765243 0 0 0
5243 1 46.958018479301636 4.967530203129953 1.5584702619688493 0 0 0
5285 1 47.00425464009788 6.830753748522088 3.288353925781158 0 0 0
5283 1 46.91358640377852 8.789013784446881 1.4902915450869816 0 0 0
5246 1 48.69328618338464 5.187433343004244 3.494297555547604 0 0 0
5284 1 48.573087839371766 6.855572714030627 1.5579697198340638 0 0 0
5286 1 48.73573002084634 8.65370438780428 3.4249554940372713 0 0 0
5643 1 50.51531591824776 5.062233009976943 1.6641726769789762 0 0 0
5685 1 50.635405136673356 7.04477872914922 3.334925217184023 0 0 0
5683 1 50.339205325661965 8.678389174938815 1.5418061459842134 0 0 0
5646 1 52.37704157549551 5.112393767315704 3.460008315009015 0 0 0
5684 1 52.30391165430426 6.826103456898349 1.4716066014395757 0 0 0
6043 1 54.14390055670764 4.985917483067315 1.4539336521802686 0 0 0
6085 1 54.098971847844396 7.011698384429797 3.3872124707045876 0 0 0
6083 1 54.092262768442865 8.729109180829306 1.567189215246676 0 0 0
5686 1 52.14715728679083 8.768007597462478 3.2068551164012398 0 0 0
6084 1 56.0402236204394 6.7943008949549535 1.5602773484616004 0 0 0
6086 1 55.946956153110214 8.72736784053817 3.416416878210409 0 0 0
6046 1 55.81275497711102 5.125360992936186 3.3902995309779005 0 0 0
6443 1 57.79900287190907 5.023193847883581 1.5949683776420853 0 0 0
6485 1 57.66816637805598 6.929048524583994 3.341646785179613 0 0 0
6483 1 57.724112684103595 8.783596430868148 1.571866724140137 0 0 0
6446 1 59.709337507160996 5.095204685467215 3.280365887826164 0 0 0
6484 1 59.53452673584467 6.787641914538624 1.6942961109024453 0 0 0
6486 1 59.552612023473614 8.575304652004027 3.2550414869854754 0 0 0
6843 1 61.44728812866079 5.028242517002305 1.4539722921309068 0 0 0
6885 1 61.47603872972814 6.892045151145554 3.3028375229295492 0 0 0
6883 1 61.470126133864134 8.603991499736079 1.5098963048255925 0 0 0
6846 1 63.31926093008643 5.193122517552724 3.3533326301485413 0 0 0
6884 1 63.37039293404736 6.77635153199237 1.4616058974815225 0 0 0
6886 1 63.240223040328445 8.73790189204711 3.3438871738054026 0 0 0
7243 1 65.12404563885134 5.076407565393155 1.4999407600717087 0 0 0
7285 1 64.96852020495943 6.993017234231248 3.3256801300004457 0 0 0
7283 1 65.02770556173685 8.710364508139993 1.4974151348546205 0 0 0
7246 1 66.79100398550192 5.110906243406822 3.3054766266828652 0 0 0
7284 1 66.99808285707986 6.814469202828783 1.4983397195447228 0 0 0
7286 1 66.81609965364923 8.584381633804508 3.179192638175163 0 0 0
7643 1 68.85583706058412 5.107457615992949 1.5535883714807392 0 0 0
7685 1 68.83618277429657 6.757813780505577 3.499178357108433 0 0 0
7683 1 68.64863974976376 8.743317848886766 1.6484254963258584 0 0 0
7646 1 70.52801299501445 4.9329773646413795 3.4938848240816642 0 0 0
7684 1 70.52450378094733 6.869968942560004 1.6127095304625914 0 0 0
7686 1 70.53885218251389 8.721401662192857 3.2897331071612794 0 0 0
8043 1 72.41046185682556 4.9759598318100595 1.729753557744966 0 0 0
8085 1 72.38230855345681 6.921187063409131 3.457720690100681 0 0 0
8083 1 72.57534785123539 8.707577096595367 1.5874143632646653 0 0 0
8046 1 74.15355976813994 5.072866289698882 3.527293596875972 0 0 0
8084 1 74.18749274275372 6.801367935781706 1.5099092002478056 0 0 0
8086 1 74.19584279056602 8.67255043693462 3.53268144637606 0 0 0
8443 1 75.96984442386226 5.114929081482549 1.5318713240891826 0 0 0
8485 1 75.90259810858296 6.774866853596146 3.370080891596899 0 0 0
8483 1 75.86172432175591 8.643309771188449 1.5409997223007712 0 0 0
8446 1 77.93708003922134 5.199686898985223 3.247398265351468 0 0 0
8484 1 77.9017446096144 6.982181585878322 1.491141491921732 0 0 0
8486 1 77.69933923898327 8.559852758919321 3.446116145886642 0 0 0
8843 1 79.61561581478203 5.088858114975842 1.4662355781177574 0 0 0
8885 1 79.64521964812953 6.836657364098782 3.4245170310931465 0 0 0
8883 1 79.62169128912173 8.642048627875385 1.7280037608126342 0 0 0
8884 1 81.3287409093853 6.989386267434838 1.5744213430397493 0 0 0
8886 1 81.45037837709913 8.704889027617263 3.3944810161004924 0 0 0
8846 1 81.53614790513785 5.107726884349364 3.2442480107439984 0 0 0
9243 1 83.40809070278314 5.20541867288625 1.5105205844637755 0 0 0
9285 1 83.31349432053605 6.905125937444576 3.185867398167338 0 0 0
9283 1 83.41721421430472 8.745264935173717 1.6091415953784511 0 0 0
9246 1 85.17990799612949 5.181391717667835 3.279772484482984 0 0 0
9284 1 85.1420234314287 6.9339719170045635 1.5387195301962315 0 0 0
9286 1 85.39761638030079 8.8347554107879 3.2728666662289725 0 0 0
9643 1 86.91031840539686 5.094587385580681 1.6217962193974114 0 0 0
9685 1 87.2290253338894 7.140962573446304 3.2080182920687763 0 0 0
9683 1 86.99446438649251 8.740519083069314 1.4062265011560133 0 0 0
9646 1 89.0448807185219 5.030688908488711 3.343972718161023 0 0 0
9684 1 89.02692751570463 6.798022250830081 1.615642472710145 0 0 0
9686 1 88.99510908629489 8.801001125312327 3.2699063249875526 0 0 0
10043 1 90.82035381571423 5.0755119718660895 1.4115110561363358 0 0 0
10085 1 90.73030932295666 6.795258378374162 3.2215463559447146 0 0 0
10083 1 90.84400944583105 8.789160418933562 1.5568145465548875 0 0 0
10046 1 92.60217031804302 5.071683690035779 3.3872720205653444 0 0 0
10084 1 92.60526044941292 6.868134213103725 1.5904768137459215 0 0 0
10086 1 92.75611846018168 8.744237123562634 3.350141694760238 0 0 0
10443 1 94.4304911218945 5.102208498317169 1.5246815918008563 0 0 0