LAMMPS Description

2000 atoms
1 atom types

0.0 72.2 xlo xhi
0.0 18.05 ylo yhi
0.0 18.05 zlo zhi

Masses

1 63.55

Atoms # atomic

1 1 0.0021071217101958587 0.05156618929352964 0.0025944329395332305
2 1 1.8080742172480375 1.8541461740399114 18.04113054188114
3 1 0.026315909810054435 1.8312959199288632 1.8416363892661334
4 1 1.7884272724984138 0.024804528738639135 1.8507823759757085
5 1 0.005522649978014051 0.0007054492862567755 3.6551360917110234
6 1 1.8310060433773028 1.8195888482365836 3.6521353952328823
7 1 0.04623075153787797 1.7938018497897315 5.430829749188917
8 1 1.8050041907593264 0.00206790236562445 5.36082950487633
9 1 0.04175637344381924 18.02749514202908 7.203028915271625
10 1 1.8204863422857054 1.759790604687324 7.2253983545342
11 1 0.014039337737479217 1.84461454679534 8.994966564303324
12 1 1.8169053849500132 0.011802059068256095 9.075308919439001
13 1 0.011766094740658083 18.01151568692923 10.863541751661419
14 1 1.8001145909877216 1.753633288686195 10.855483502055117
15 1 0.04858917839840019 1.8025657365466412 12.658844318023904
16 1 1.7851057297290869 0.015147136845068767 12.589508325576405
17 1 0.015014372521672363 18.03599227853031 14.389036557241553
18 1 1.8469251081871936 1.7883762448415383 14.423326372569958
19 1 0.020203601815147285 1.8419272773437179 16.215323638528947
20 1 1.7504228841692668 0.006089810546510085 16.231082367022914
21 1 0.0021822387739070773 3.6111145254850134 0.057229195292852794
22 1 1.7575370618506811 5.433417587993372 0.013540743619666194
23 1 0.04642050418883982 5.4334036558164716 1.8146998579594735
24 1 1.8236779158108432 3.5642119056761192 1.8235975002676483
25 1 0.019280988729157678 3.6296220440387557 3.5675680424439213
26 1 1.7925923694194774 5.424294195902015 3.6609264800027943
27 1 0.012010765134696937 5.421792554332293 5.363827813212741
28 1 1.807132898571742 3.6089997176182758 5.466762440018763
29 1 0.03849698179960316 3.643424226488497 7.225187548731365
30 1 1.8280205023055025 5.439817899563864 7.255266247389564
31 1 0.021032799426389245 5.419135249286452 9.063537209764185
32 1 1.7758745383964134 3.6424104265087984 9.054344650216283
33 1 0.04423924787512914 3.6010144428690203 10.809134856256842
34 1 1.7989821525279053 5.459844966960007 10.810270962337047
35 1 0.031607095210076847 5.374075006339739 12.640458385723855
36 1 1.8316600005405925 3.6414644998327206 12.601937510929954
37 1 0.011027963329470364 3.6270270828572264 14.393053001872682
38 1 1.8405863310039492 5.388069163409963 14.468847122946082
39 1 0.010995502781687384 5.399723358059729 16.198629163291177
40 1 1.8336077271076408 3.6421499641925164 16.26994986792867
41 1 0.03116898607708147 7.177969571942186 0.007237333207289186
42 1 1.8123252160391181 9.019184278732647 0.052313766554285074
43 1 0.04122611448314629 9.040640849215876 1.8304426661159507
44 1 1.8037167129874392 7.218347583901039 1.852388986872259
45 1 0.009667155107120632 7.26944476820579 3.6072984303670577
46 1 1.8372669039954492 9.001050933599446 3.579021445125923
47 1 0.008029795689342796 8.976753546059257 5.407493251614362
48 1 1.8040492746785415 7.216713485783137 5.361220495828635
49 1 0.036272423691432354 7.1930372745310365 7.183551634716162
50 1 1.7943474453255843 8.98167485698953 7.2540970637210025
51 1 0.03341000918991524 9.00794964150395 8.99118471414676
52 1 1.8123515526264706 7.266410998901895 9.047902498105556
53 1 0.014152163718627445 7.1943199713372055 10.788603319059323
54 1 1.8340116661320867 9.064749263678303 10.838672413553411
55 1 0.0001973382010701088 9.023760286187416 12.680458865346415
56 1 1.78101435217934 7.206924175777241 12.674348204127174
57 1 0.023074432445241683 7.20558033818743 14.477919514619806
58 1 1.8260145507448617 8.998908695243298 14.397002100949837
59 1 0.0010265403075425113 9.025701936629671 16.299735945007814
60 1 1.8452109455761432 7.239983229048794 16.219683663540525
61 1 0.03422238069070192 10.810030575315203 0.038449905921406596
62 1 1.799061055764525 12.617365015860544 17.995399564757534
63 1 0.03292201189897615 12.637783831702409 1.7661636372970468
64 1 1.8424576456213313 10.815639083922296 1.8415019927420226
65 1 0.0018130375208629148 10.827120484380183 3.65790753050729
66 1 1.8041083466156342 12.636294494912462 3.559196329324827
67 1 0.021968679134031926 12.63281904942725 5.368368936985445
68 1 1.815600596867246 10.81879350381034 5.462041521080266
69 1 0.015602061798412918 10.881530935819391 7.2150349823690485
70 1 1.847748590859162 12.624075483704368 7.192645810863848
71 1 0.017913071479941645 12.596685951816452 8.99467709627013
72 1 1.809032535925194 10.841597625832334 9.069278345680202
73 1 0.024048844332313683 10.792868755235274 10.825559662811376
74 1 1.782605914174195 12.596862224346218 10.802636127762828
75 1 0.007904655295326217 12.631047770459856 12.683674431710969
76 1 1.7682300852880986 10.859869050322256 12.609115293898574
77 1 0.04844033587519876 10.839233300277941 14.435706895757143
78 1 1.8426536548997006 12.622041042661865 14.41615388339128
79 1 0.009892395533709976 12.685939337518164 16.23673058885796
80 1 1.756542548392114 10.841914279605543 16.22464319129911
81 1 0.04122197193336821 14.419427178043733 0.022400817620925863
82 1 1.806655112676701 16.244931243807837 0.04833327406606311
83 1 0.02830574694186598 16.28036837570072 1.7818565490588731
84 1 1.8060029704980138 14.469729152494445 1.85163992610073
85 1 0.003628741778902139 14.436714060545967 3.5521910798043295
86 1 1.832814953014662 16.267450880816114 3.650209593992768
87 1 0.026128798689653544 16.21232740275346 5.441894826970411
88 1 1.8034312928329812 14.492079835000636 5.416744417082576
89 1 0.002244365019374274 14.439356134899267 7.169566448861744
90 1 1.8101593786752637 16.23623115663523 7.168588749132242
91 1 0.03814124378319632 16.230826861184735 9.04541676879238
92 1 1.7939142508186263 14.49264931114226 9.02499497827708
93 1 0.010532927191440894 14.439082145503948 10.78007912719388
94 1 1.8093898429065316 16.258399495311817 10.876001951580688
95 1 0.015908425416064943 16.293317822315863 12.619820567074651
96 1 1.766358177637998 14.462845817417886 12.662518837841034
97 1 0.04449407061031633 14.453171605595388 14.468093348965166
98 1 1.7995191882958759 16.244127105889255 14.392238757141385
99 1 0.008393071701613216 16.19850175679278 16.224787848676648
100 1 1.7965100283774225 14.44039548734071 16.192097025848415
101 1 3.587996463836171 0.029252795677161762 18.015933521567437
102 1 5.432708221065801 1.8123044182554917 18.00285887588049
103 1 3.6183958969153363 1.8506146308373876 1.7846646197463687
104 1 5.415631574977373 18.02430406815436 1.845334459377927
105 1 3.6024748771747888 0.04428005478628987 3.6312144158010256
106 1 5.413166830192284 1.8062174000891296 3.658866631073721
107 1 3.65823715438597 1.7977574227276354 5.40448421058848
108 1 5.421089132563241 0.0030212575692146605 5.466126286151134
109 1 3.6297556365591745 18.015251002190077 7.24871617055374
110 1 5.3663776163595935 1.8008955724719216 7.233215117134976
111 1 3.617347369398284 1.8274625279230732 9.071060005854042
112 1 5.4484053191313135 18.042172449733602 8.992966332713637
113 1 3.5656140167878587 18.0408627414352 10.80399103127555
114 1 5.448600361795143 1.8062399861202068 10.791585150793647
115 1 3.563797677803545 1.8290431730862629 12.633949386973832
116 1 5.4262847521792255 18.009448085106385 12.66227881797682
117 1 3.572981986970535 18.016632651202563 14.462719093494552
118 1 5.383627869307474 1.812784618296602 14.475312980997321
119 1 3.604544846203508 1.8535537170055867 16.25755574776262
120 1 5.413601846907286 0.003140465001644111 16.19533182563819
121 1 3.596245212190673 3.639636509368403 0.04272067824649253
122 1 5.467630588581856 5.422630489966438 0.009904349311451862
123 1 3.570524582931507 5.42941145982457 1.7730964090932244
124 1 5.422028278258135 3.612322711556659 1.8600400647826891
125 1 3.559785004560188 3.607236441396739 3.6026378354513424
126 1 5.459604557789658 5.39646401175394 3.613165560344347
127 1 3.6333103948693504 5.422666421554461 5.461852261458369
128 1 5.4491552604366635 3.611944598037285 5.45007359694279
129 1 3.6090464230654686 3.6298368952440505 7.168978218963667
130 1 5.408252265214889 5.388457134099268 7.17428389452256
131 1 3.6635494719999184 5.405306534125736 9.041343921313342
132 1 5.418900846516243 3.5921600405632828 8.978913114023616
133 1 3.6145671335065925 3.6428584783867364 10.87181824481126
134 1 5.376423694007111 5.399240812674009 10.812084424861274
135 1 3.604919912935859 5.417298627863481 12.580869622035054
136 1 5.43646637854058 3.617878091451092 12.686247975772261
137 1 3.656005395345244 3.59986907034894 14.463067164183473
138 1 5.405595776789083 5.3960528880136875 14.486380578302132
139 1 3.6629941902903806 5.409575698170776 16.245759132679773
140 1 5.401569425554843 3.559914872899614 16.238100092130004
141 1 3.595774818828699 7.244797739299446 18.011481631741848
142 1 5.39368987670688 9.052607299085935 18.017665740444112
143 1 3.6104224663552094 9.024987701966284 1.857944075912493
144 1 5.468700987951183 7.23404984707691 1.8000432594699616
145 1 3.652539055213464 7.199801897047752 3.596213680055798
146 1 5.3748687984758154 8.994993123039022 3.5990559138621596
147 1 3.6024290893365105 8.992275051429637 5.376319452955709
148 1 5.413328558725142 7.216440253316486 5.474649265604768
149 1 3.628397862838569 7.200568460320089 7.172008341073007
150 1 5.4121425320604715 8.991091393787094 7.253079701487262
151 1 3.6147035331604567 9.04894840799389 8.983032608454344
152 1 5.464739463703691 7.213020029269302 9.005963544958394
153 1 3.6574203725045926 7.2212158566749585 10.814721938621968
154 1 5.416082276167157 9.017988454461841 10.885704477818315
155 1 3.6067769377610865 9.022311946154566 12.584972744433125
156 1 5.410882634529186 7.215627869996695 12.584468263896206
157 1 3.6121834462947198 7.217384114046232 14.387081204476937
158 1 5.445688839178067 8.984182887764923 14.425631991242085
159 1 3.5579304967541963 9.007714313682841 16.252031434168753
160 1 5.426962551572601 7.212630114254662 16.195273787718325
161 1 3.619105565159991 10.823554053136293 17.99657594227411
162 1 5.377474215558458 12.597206524367106 18.040454160577898
163 1 3.622998148486071 12.624041843966364 1.7534205095472808
164 1 5.402196602603596 10.792549016838104 1.8459649211929698
165 1 3.6534427513949113 10.852277408934894 3.626490675220974
166 1 5.40609308518239 12.685270608551892 3.6085975951436144
167 1 3.568626670999488 12.647872371663112 5.389494827056724
168 1 5.403294095221455 10.77443387277036 5.4161852428931
169 1 3.614793961272728 10.830093465109279 7.165175568745224
170 1 5.4523791879101 12.62889237947765 7.1831660620664115
171 1 3.618800174807961 12.612348194650037 8.977935075556806
172 1 5.454423892851473 10.808284429248799 9.00716374916715
173 1 3.6198819502191824 10.837811840049461 10.781517240131498
174 1 5.368171387482339 12.66334160759567 10.816707358355842
175 1 3.6141942974330417 12.633556816766118 12.587149513836776
176 1 5.407306536412426 10.86591154751812 12.59604496828232
177 1 3.5997791180789394 10.829053990660926 14.48528383395435
178 1 5.421078931610599 12.638756512000592 14.48849974907937
179 1 3.620133673264581 12.627641268744432 16.290272063723812
180 1 5.443103003469925 10.846804343614261 16.207221074116696
181 1 3.594814631044618 14.443731675336517 18.00087568799817
182 1 5.406809173012354 16.249882126652793 0.05092065210449485
183 1 3.6230524903188517 16.213899931470817 1.8473532060928906
184 1 5.419607339889273 14.449968443717676 1.8567861975026805
185 1 3.6036648307548287 14.42666383051828 3.6571213618618468
186 1 5.4316225563635525 16.255237300006414 3.5654389848960646
187 1 3.6264650215312075 16.24003743552987 5.364129209829026
188 1 5.411433309569174 14.431939000159845 5.367814117734707
189 1 3.6350989665310744 14.481405167123565 7.2293351598426705
190 1 5.456313976055659 16.235802737178023 7.253404194207428
191 1 3.5964993751273666 16.24560048328312 9.07541658081015
192 1 5.409634548154956 14.47953711243872 8.989448477786175
193 1 3.619933389947889 14.428964236067035 10.876737234563063
194 1 5.373696951587463 16.252538982581562 10.803933096955493
195 1 3.615278054075037 16.26177934035258 12.68481172289876
196 1 5.422702624128783 14.398424301397831 12.618064781926842
197 1 3.614841553731278 14.45969431306759 14.389451218143995
198 1 5.430741015709629 16.24191190906748 14.39741076259641
199 1 3.5983472593165517 16.297060515135367 16.24020396054472
200 1 5.421082408972077 14.410888157039357 16.29362954215151
201 1 7.2453487930854426 0.0019585653746677424 18.00260375755536
202 1 8.977949607219006 1.8260108841441856 18.042234115111917
203 1 7.191685489084993 1.7617263989982508 1.8302223915347593
204 1 9.013361566966308 18.032746356226575 1.7566157429446216
205 1 7.269791140638717 0.004550686074215879 3.619032736314057
206 1 9.054831648124646 1.843415549813492 3.5969007594704934
207 1 7.254756926425291 1.8074201809150163 5.376121367873233
208 1 9.058366108401897 18.01380557804214 5.425551078098346
209 1 7.249716655271064 0.020883401965207188 7.188063001826213
210 1 8.994095561024132 1.7818030561439289 7.186998442350967
211 1 7.177367835100173 1.821066747706118 9.027018857947905
212 1 9.033108901896346 0.010306378922921997 8.971082101669268
213 1 7.186210233820971 0.034066274490888164 10.835111243256947
214 1 9.005219802035706 1.8092609859608653 10.779744066585486
215 1 7.235190679800978 1.8103871665988551 12.68532857932644
216 1 8.986310384442143 18.026572808500482 12.654730014182626
217 1 7.172052185433649 0.0018261905414156143 14.419178774349911
218 1 9.052964842649567 1.8315953117593922 14.408037290647794
219 1 7.2491277802511895 1.8052871273672009 16.296591244947887
220 1 9.000574681011843 0.029413773812062973 16.286697874709656
221 1 7.249935940328201 3.6139946755678927 0.04271883829488061
222 1 8.993808834686954 5.366510486651465 18.046422025402183
223 1 7.239197930757036 5.4182132134006835 1.755982242718916
224 1 9.063837356162036 3.6425816821375006 1.818577632049174
225 1 7.20822426445678 3.656112904973092 3.6330637776391606
226 1 8.986265936285864 5.386284031761649 3.5877727778553923
227 1 7.22039194016751 5.439646300473188 5.457524707137542
228 1 9.011189266334569 3.5786803187833187 5.37190903666785
229 1 7.224268987949986 3.6522068856631678 7.247746814054821
230 1 9.05256852472034 5.4477270523717705 7.241107008429132
231 1 7.17246095497783 5.432998152334723 9.032487044621853
232 1 8.998185082313858 3.612708523710912 8.979516671275439
233 1 7.234537768482102 3.654858403202902 10.850466789687882
234 1 9.05617375049058 5.405970819605848 10.78903571595893
235 1 7.256655916883277 5.453700776684313 12.643253954134332
236 1 9.043822441827508 3.6407491238236256 12.59786303936137
237 1 7.1758391564117225 3.634097282597897 14.461704239495306
238 1 9.040170316746618 5.386339701717812 14.479846340515795
239 1 7.211123597207539 5.3856072572781555 16.20349020487524
240 1 9.021990454611997 3.6144211773695387 16.19578305015565
241 1 7.260602696828964 7.205956525495217 0.029728853874077008
242 1 9.045822459258687 9.067902411461096 18.034385543523825
243 1 7.235513302046705 9.030388939164965 1.8557238155530351
244 1 9.070538624605332 7.20421124708848 1.8048059994418397
245 1 7.237579299145367 7.221108700659527 3.556514894580364
246 1 9.05021372564822 8.982734764725876 3.610594863893668
247 1 7.1990120762646646 9.02841235112971 5.372691906088326
248 1 8.993931245521111 7.182467371262205 5.407467386433482
249 1 7.2659868844535165 7.230644755380878 7.205773915471452
250 1 8.975511979432284 9.01630816508575 7.229220733619117
251 1 7.232133751176267 9.029239764776104 9.072274392273
252 1 9.052917499423678 7.2180658304624785 8.984706698682155
253 1 7.22010123047226 7.219508690766563 10.77699615996654
254 1 9.033273188242795 8.9717511711177 10.822085506685552
255 1 7.174449903405542 9.049273407494466 12.625599408188059
256 1 9.035290748699492 7.181343077454989 12.672124583977585
257 1 7.2444994527533355 7.209418677696525 14.48346430063938
258 1 9.027897155097639 8.993034161353144 14.4862664031558
259 1 7.225819314669307 9.002679976702495 16.198226722637344
260 1 9.012664591083034 7.2286950544642385 16.195557744178465
261 1 7.1871707891341075 10.841039161301259 0.039906773766662
262 1 9.004069872294004 12.677345497832691 0.016058156536748046
263 1 7.268834293625047 12.64495209657504 1.7947107735924683
264 1 9.050409784013672 10.84472355340857 1.8489405366650773
265 1 7.185138544941792 10.7985070697735 3.6316492438687655
266 1 9.015101275292123 12.596021177360955 3.580817167963378
267 1 7.207114636893312 12.594111191460824 5.383522136032764
268 1 9.028159381364492 10.833056091497227 5.366759144755328
269 1 7.175667052671477 10.854377683007373 7.2234192126836465
270 1 9.00635919765965 12.608631702475078 7.2615648272
271 1 7.2258622752410675 12.643145990219569 9.069887596731636
272 1 9.018331195978446 10.838517189456212 8.978429798690298
273 1 7.185851676731328 10.830374956160677 10.790618572329734
274 1 9.045855569195687 12.596939547400025 10.805897452085816
275 1 7.246857058031307 12.667952858924194 12.612817263704104
276 1 9.022614108099788 10.811876950685571 12.589352174677918
277 1 7.205648798604876 10.828711942516641 14.48752839029508
278 1 9.058726005546962 12.679706339136914 14.429845188679018
279 1 7.188497273950722 12.602231794523417 16.246256219317964
280 1 9.034520562218566 10.785093999669627 16.22230503501812
281 1 7.223935455311272 14.471351865743548 18.011471367989355
282 1 9.02773210631679 16.25697867092878 17.998402113490837
283 1 7.204117062899691 16.259579308154876 1.8525331328157093
284 1 9.081277684922716 14.439959380236031 1.7978499755754693
285 1 7.250608990700583 14.470404704128635 3.5792236905825425
286 1 9.024711787806767 16.24363287986531 3.6602608099466765
287 1 7.232283033416363 16.288610361930328 5.386907128964801
288 1 9.067213719902771 14.40040860332699 5.40666051350477
289 1 7.220257025794893 14.438938527743174 7.269086849172811
290 1 8.985247291216673 16.235573078900284 7.1903517291417955
291 1 7.2011627580923045 16.196376557487255 9.0163786381784
292 1 9.035909849081596 14.481596747927176 9.000569937277191
293 1 7.269262941885621 14.451257119148206 10.84688473923029
294 1 9.069187481284038 16.255726463545642 10.853480005163767
295 1 7.2175471863107195 16.242811177980553 12.68728304787523
296 1 9.038195373845271 14.446333377893643 12.685350806273979
297 1 7.2319689880913725 14.450335176829643 14.49588941482449
298 1 8.998250705209104 16.248621306799322 14.485708218483998
299 1 7.219947563653383 16.245357087027976 16.29833823406688
300 1 8.987026917604023 14.411897553353732 16.268531358997027
301 1 10.83676382488529 0.00557630622444968 0.049215858329559485
302 1 12.682061387046367 1.7826554645892223 18.031744498891207
303 1 10.835219277947973 1.8480475275170387 1.7843543093328604
304 1 12.636476644738082 0.0030974842872022973 1.7519674281008835
305 1 10.825678831970123 18.012007429599006 3.6392058868704535
306 1 12.635407344772263 1.7666162025359333 3.640618145442966
307 1 10.838567822737778 1.85436824357152 5.392499820906382
308 1 12.664257493105357 0.039523349453553756 5.397087074776652
309 1 10.791943199789186 0.02909006453052074 7.198617808511559
310 1 12.646023844089639 1.8237294133626063 7.170199130885026
311 1 10.809777287908762 1.8453256554463016 9.006893910713664
312 1 12.648479866301972 18.000070870063475 9.042511337653279
313 1 10.825735207555422 0.029401720418014955 10.866621696973843
314 1 12.614662001894361 1.80654638436977 10.780800510580846
315 1 10.87069024892281 1.7871427795086983 12.664737564030753
316 1 12.622373906787166 18.01015617723203 12.672790253881512
317 1 10.830096289523677 17.99316582272236 14.422001958660388
318 1 12.590661746865276 1.814613155614383 14.458906412906423
319 1 10.861332073883169 1.8362522184584202 16.269235043425613
320 1 12.669315810758537 18.031098173028155 16.209596431632416
321 1 10.842827100460495 3.5621268713653635 0.01611025578296069
322 1 12.634427542852297 5.414680891462488 0.048907654140847974
323 1 10.841394905342261 5.45642630593481 1.837874370867991
324 1 12.657355331200487 3.6108164680001673 1.8490838904402807
325 1 10.798361559190438 3.5877483458952675 3.5722262202764075
326 1 12.637983721514363 5.373120076198973 3.6414605239290556
327 1 10.806954699343741 5.452138622320778 5.44408920307666
328 1 12.682692474270148 3.584555869630046 5.434701096432978
329 1 10.791078858104514 3.6168984675044116 7.1838109272988495
330 1 12.615305953950715 5.442599408651179 7.25605417871595
331 1 10.7839427767149 5.427478870680814 9.041271672499686
332 1 12.629941043717052 3.580664403689344 9.06350222558353
333 1 10.819552806658784 3.6334409834390824 10.87284778750237
334 1 12.63811347879225 5.4087470390783166 10.775793890589167
335 1 10.836178793869507 5.465434896160672 12.617655930606498
336 1 12.634043574912063 3.6112924705904246 12.582663033629467
337 1 10.788946639638759 3.6300908127774214 14.468371762432676
338 1 12.652797316190716 5.415964143949897 14.487468868376506
339 1 10.815937520002596 5.464115312028763 16.236923173794978
340 1 12.648329132892282 3.5927497480940236 16.2938589867995
341 1 10.861285564786078 7.210259520178525 0.03848029119582078
342 1 12.62505442030462 9.02602653348869 17.999201318725234
343 1 10.805598975421152 8.998685037308993 1.8473186852292367
344 1 12.637969522812199 7.2079184970683645 1.7489121901544857
345 1 10.875008683986575 7.218240735760818 3.5802354714773013
346 1 12.62056974520112 9.063241209978939 3.642653588084089
347 1 10.837907532915885 9.025384325309535 5.4632081518968825
348 1 12.682112764555391 7.245467199097622 5.414845560447439
349 1 10.787167219752074 7.20751959070626 7.194901094402545
350 1 12.676928368066113 9.02089300745276 7.193078630945109
351 1 10.863610894392304 8.988429885595846 9.002028594723903
352 1 12.611741705350186 7.1923659566369365 8.984993666155432
353 1 10.804146840606784 7.240405017030463 10.792152327690244
354 1 12.625280599515001 9.036598889135748 10.781728619970291
355 1 10.792098499647539 9.041715194020334 12.611175578595752
356 1 12.615904089916267 7.187108820412423 12.67464213102092
357 1 10.846195678691995 7.224383175957156 14.392202647256202
358 1 12.641485371146839 9.018469193865712 14.391625430785949
359 1 10.810400242620265 8.996977124777855 16.2067328358613
360 1 12.62871564221397 7.179735051105438 16.276872230924486
361 1 10.856173383711928 10.804930098540138 18.016353336305677
362 1 12.597976694791232 12.622971629181578 18.02162764936358
363 1 10.848365023573358 12.658525037681391 1.7601801135664978
364 1 12.683066013977662 10.837058975372036 1.8160133318180263
365 1 10.841550384602616 10.807544412820093 3.560116512536523
366 1 12.637134391684796 12.63116369477735 3.6624724209951776
367 1 10.848578396907532 12.667978078365595 5.455132611966203
368 1 12.663115842393966 10.843435474657243 5.459248402207956
369 1 10.829656097863372 10.841578712654185 7.267269391667293
370 1 12.633039821359331 12.634300871578331 7.168989010874801
371 1 10.803937119359446 12.609981934113689 9.055825791720993
372 1 12.658875422030468 10.853495540078663 8.983476520272317
373 1 10.81361351170877 10.843118528647452 10.875109726295872
374 1 12.596789422692101 12.664652856745 10.850564654660419
375 1 10.865546786227227 12.641568423600699 12.600208531900606
376 1 12.600154053968074 10.821554948258209 12.599399834875998
377 1 10.798913787167054 10.78600488629276 14.44158241950096
378 1 12.633154605678403 12.651491609005289 14.387637621797777
379 1 10.848907844965213 12.597044290148682 16.26818352331638
380 1 12.626335195969546 10.81155531411172 16.29388417186069
381 1 10.876478436754764 14.431845283246705 0.018641459918366136
382 1 12.635253056605153 16.25328718894213 17.998338777726612
383 1 10.823707573996865 16.25608029224439 1.7481019098937758
384 1 12.662931268198488 14.467627058767542 1.845086886814139
385 1 10.837237132724056 14.422016261780897 3.558369606026021
386 1 12.614086824588759 16.29768940088987 3.6133083884819834
387 1 10.823240458415995 16.193894321073163 5.408318508296319
388 1 12.626790241170593 14.441216286731159 5.362239813111403
389 1 10.872249265191536 14.4544368580406 7.226641614370698
390 1 12.638219060196569 16.243383920396074 7.167270861320246
391 1 10.833234159863032 16.24150301118664 8.968107921169121
392 1 12.61929988988617 14.430720523032461 8.981858727379183
393 1 10.783746667879358 14.462255267917186 10.815138519013225
394 1 12.635232627246205 16.2477141359795 10.778842116338836
395 1 10.882271245987312 16.23180747232636 12.638876072843738
396 1 12.5919753097893 14.45257477841277 12.658924739128294
397 1 10.842937228920494 14.473050616102498 14.40617360630443
398 1 12.661224560021452 16.256511032286298 14.399557100123234
399 1 10.86360297667037 16.231853890104336 16.283296578524507
400 1 12.666259944918325 14.48079862634969 16.237100320090672
401 1 14.398189174803687 0.001942488700257586 18.012769131803733
402 1 16.206049231645444 1.7938291060486964 18.015257260914165
403 1 14.464572879155213 1.758799768834096 1.8109278402683304
404 1 16.21709035465607 0.044195856858134146 1.8247831027443273
405 1 14.437279956217411 18.04742181524162 3.5605200437615605
406 1 16.24369154991682 1.7646785015006117 3.571916111491893
407 1 14.475888160715858 1.8137934344281537 5.450249396960817
408 1 16.245977004020467 18.037954453840587 5.364843899192308
409 1 14.448107562896933 18.018834365316955 7.175847277688797
410 1 16.263958765516783 1.8392603081245242 7.183832809989082
411 1 14.42925817412244 1.7789514758516625 8.98253143239221
412 1 16.230365961306315 18.022089063925062 9.068208744347853
413 1 14.48513089958369 0.012312054580403263 10.859914487441761
414 1 16.2347420804037 1.7878205543424883 10.787703489440116
415 1 14.425693588010986 1.808119522618532 12.586126686944771
416 1 16.26036785971746 0.021063116159192794 12.592422772213139
417 1 14.458066631769032 18.00665046091005 14.414699643736148
418 1 16.226884253472537 1.8139866048530482 14.391409335357205
419 1 14.486792097143855 1.8002285858494302 16.227270171835467
420 1 16.240370710683745 0.04174502975974351 16.268832389815014
421 1 14.438295115342877 3.616812296786339 0.052944798884543585
422 1 16.25858628862869 5.460715480521642 0.000984358815989228
423 1 14.446685844059683 5.41307671437256 1.7516651150809415
424 1 16.281270717046358 3.587151439028121 1.7796914467582994
425 1 14.458049233440459 3.5714241880592197 3.6279094296311167
426 1 16.247179695658343 5.422959627823335 3.6623593070615015
427 1 14.44283067873796 5.3826627810015415 5.375994335356606
428 1 16.208151350170862 3.578604960204522 5.394210332144065
429 1 14.434115971333995 3.605425917235901 7.169882357721116
430 1 16.21610922216024 5.374023118484289 7.241604316477375
431 1 14.444530312619397 5.4129233946229025 9.073354622800503
432 1 16.2391170728007 3.6099720328289457 9.07873421660952
433 1 14.436269340850949 3.6376225577131396 10.784099588165041
434 1 16.254892241346077 5.461877772979134 10.807378341898394
435 1 14.480139042652516 5.439270278486045 12.607494480421972
436 1 16.251293710339315 3.5854988319892773 12.679484365359759
437 1 14.464881631951728 3.6375498127923658 14.405338834395133
438 1 16.276215495657397 5.429797629330618 14.40149627406877
439 1 14.439952660307176 5.413374804423857 16.19441446697059
440 1 16.265573729161787 3.635764111812852 16.282767644218808
441 1 14.442278671381445 7.268754801064051 18.03325216017656
442 1 16.246341474334557 9.033593889027237 0.05143446788188139
443 1 14.402433984904986 8.996552006430951 1.7846157419583093
444 1 16.211319758165196 7.228318943792719 1.7611323245189199
445 1 14.44432742344641 7.227336377094208 3.5636649181873534
446 1 16.26408064487867 9.025933872931013 3.5625786926700775
447 1 14.490769725773823 9.049666583623203 5.425857043934742
448 1 16.292853201234223 7.207628622041582 5.429803291081332
449 1 14.460905959072575 7.182744987916224 7.193677442550024
450 1 16.24592744155804 9.05673901195802 7.180233516821704
451 1 14.431072229836595 9.025884552324905 9.072843056716511
452 1 16.245158338914113 7.220029558950559 9.074741122784419
453 1 14.457438692405846 7.238437145039197 10.785026856292228
454 1 16.214180617531394 9.066429654405228 10.828820253055449
455 1 14.440983371088063 9.040690485648923 12.587000030988811
456 1 16.251850823988928 7.192309551962157 12.589367716178364
457 1 14.457848386043214 7.212736022468479 14.390724893664421
458 1 16.23560454564367 9.060894180561096 14.410508367181855
459 1 14.4343018675681 9.03859541002241 16.19385530842422
460 1 16.204129911230947 7.239166335111349 16.215175230778605
461 1 14.411881918959969 10.81928312870112 0.04108934007245682
462 1 16.236395188185753 12.61021224344992 18.01390763835888
463 1 14.473929163705865 12.610610715424436 1.8346466048649137
464 1 16.21085576526552 10.819614296357082 1.7652843656467339
465 1 14.393612691105917 10.809825520480251 3.61509117861437
466 1 16.241470844731424 12.627770540576996 3.6615377102222157
467 1 14.425502266273952 12.63891995680803 5.363894230275696
468 1 16.23883427115107 10.837348453073572 5.464227517246673
469 1 14.430716433320342 10.847021019979545 7.267196813790585
470 1 16.238826213918177 12.623705609404801 7.169082026829303
471 1 14.395555905657703 12.633920242035629 9.046246219600539
472 1 16.258155410982443 10.82743458963149 9.07428290589344
473 1 14.48813000782534 10.83984492479198 10.818449597740535
474 1 16.25188192117985 12.63026029238618 10.77815092733349
475 1 14.478564151587683 12.611352364949976 12.657633257263049
476 1 16.218725150541204 10.802452513791923 12.668718969023109
477 1 14.435614977859617 10.832219865391178 14.49394748348048
478 1 16.266663620048664 12.679216198282518 14.422035021732972
479 1 14.441926071890645 12.647071459408714 16.19267006877623
480 1 16.229037485566618 10.847816076731842 16.290088733959493
481 1 14.474628545354001 14.445013032921354 0.03995888232154585
482 1 16.27247691519302 16.274189952271392 18.01970714515465
483 1 14.391616745229573 16.26262631322846 1.7813508494482289
484 1 16.21099284586423 14.429815962012645 1.7681199774992151