LAMMPS Description

360 atoms
1 atom types

0.0 40.9 xlo xhi
0.0 12.27 ylo yhi
0.0 12.27 zlo zhi

Masses

1 107.87

Atoms # atomic

1 1 0.0 0.0 0.0
2 1 2.045 2.045 0.0
3 1 0.0 2.045 2.045
4 1 2.045 0.0 2.045
5 1 0.0 0.0 4.09
6 1 2.045 2.045 4.09
7 1 0.0 2.045 6.135
8 1 2.045 0.0 6.135
9 1 0.0 0.0 8.18
10 1 2.045 2.045 8.18
11 1 0.0 2.045 10.225
12 1 2.045 0.0 10.225
13 1 0.0 4.09 0.0
14 1 2.045 6.135 0.0
15 1 0.0 6.135 2.045
16 1 2.045 4.09 2.045
17 1 0.0 4.09 4.09
18 1 2.045 6.135 4.09
19 1 0.0 6.135 6.135
20 1 2.045 4.09 6.135
21 1 0.0 4.09 8.18
22 1 2.045 6.135 8.18
23 1 0.0 6.135 10.225
24 1 2.045 4.09 10.225
25 1 0.0 8.18 0.0
26 1 2.045 10.225 0.0
27 1 0.0 10.225 2.045
28 1 2.045 8.18 2.045
29 1 0.0 8.18 4.09
30 1 2.045 10.225 4.09
31 1 0.0 10.225 6.135
32 1 2.045 8.18 6.135
33 1 0.0 8.18 8.18
34 1 2.045 10.225 8.18
35 1 0.0 10.225 10.225
36 1 2.045 8.18 10.225
37 1 4.09 0.0 0.0
38 1 6.135 2.045 0.0
39 1 4.09 2.045 2.045
40 1 6.135 0.0 2.045
41 1 4.09 0.0 4.09
42 1 6.135 2.045 4.09
43 1 4.09 2.045 6.135
44 1 6.135 0.0 6.135
45 1 4.09 0.0 8.18
46 1 6.135 2.045 8.18
47 1 4.09 2.045 10.225
48 1 6.135 0.0 10.225
49 1 4.09 4.09 0.0
50 1 6.135 6.135 0.0
51 1 4.09 6.135 2.045
52 1 6.135 4.09 2.045
53 1 4.09 4.09 4.09
54 1 6.135 6.135 4.09
55 1 4.09 6.135 6.135
56 1 6.135 4.09 6.135
57 1 4.09 4.09 8.18
58 1 6.135 6.135 8.18
59 1 4.09 6.135 10.225
60 1 6.135 4.09 10.225
61 1 4.09 8.18 0.0
62 1 6.135 10.225 0.0
63 1 4.09 10.225 2.045
64 1 6.135 8.18 2.045
65 1 4.09 8.18 4.09
66 1 6.135 10.225 4.09
67 1 4.09 10.225 6.135
68 1 6.135 8.18 6.135
69 1 4.09 8.18 8.18
70 1 6.135 10.225 8.18
71 1 4.09 10.225 10.225
72 1 6.135 8.18 10.225
73 1 8.18 0.0 0.0
74 1 10.225 2.045 0.0
75 1 8.18 2.045 2.045
76 1 10.225 0.0 2.045
77 1 8.18 0.0 4.09
78 1 10.225 2.045 4.09
79 1 8.18 2.045 6.135
80 1 10.225 0.0 6.135
81 1 8.18 0.0 8.18
82 1 10.225 2.045 8.18
83 1 8.18 2.045 10.225
84 1 10.225 0.0 10.225
85 1 8.18 4.09 0.0
86 1 10.225 6.135 0.0
87 1 8.18 6.135 2.045
88 1 10.225 4.09 2.045
89 1 8.18 4.09 4.09
90 1 10.225 6.135 4.09
91 1 8.18 6.135 6.135
92 1 10.225 4.09 6.135
93 1 8.18 4.09 8.18
94 1 10.225 6.135 8.18
95 1 8.18 6.135 10.225
96 1 10.225 4.09 10.225
97 1 8.18 8.18 0.0
98 1 10.225 10.225 0.0
99 1 8.18 10.225 2.045
100 1 10.225 8.18 2.045
101 1 8.18 8.18 4.09
102 1 10.225 10.225 4.09
103 1 8.18 10.225 6.135
104 1 10.225 8.18 6.135
105 1 8.18 8.18 8.18
106 1 10.225 10.225 8.18
107 1 8.18 10.225 10.225
108 1 10.225 8.18 10.225
109 1 12.27 0.0 0.0
110 1 14.315 2.045 0.0
111 1 12.27 2.045 2.045
112 1 14.315 0.0 2.045
113 1 12.27 0.0 4.09
114 1 14.315 2.045 4.09
115 1 12.27 2.045 6.135
116 1 14.315 0.0 6.135
117 1 12.27 0.0 8.18
118 1 14.315 2.045 8.18
119 1 12.27 2.045 10.225
120 1 14.315 0.0 10.225
121 1 12.27 4.09 0.0
122 1 14.315 6.135 0.0
123 1 12.27 6.135 2.045
124 1 14.315 4.09 2.045
125 1 12.27 4.09 4.09
126 1 14.315 6.135 4.09
127 1 12.27 6.135 6.135
128 1 14.315 4.09 6.135
129 1 12.27 4.09 8.18
130 1 14.315 6.135 8.18
131 1 12.27 6.135 10.225
132 1 14.315 4.09 10.225
133 1 12.27 8.18 0.0
134 1 14.315 10.225 0.0
135 1 12.27 10.225 2.045
136 1 14.315 8.18 2.045
137 1 12.27 8.18 4.09
138 1 14.315 10.225 4.09
139 1 12.27 10.225 6.135
140 1 14.315 8.18 6.135
141 1 12.27 8.18 8.18
142 1 14.315 10.225 8.18
143 1 12.27 10.225 10.225
144 1 14.315 8.18 10.225
145 1 16.36 0.0 0.0
146 1 18.405 2.045 0.0
147 1 16.36 2.045 2.045
148 1 18.405 0.0 2.045
149 1 16.36 0.0 4.09
150 1 18.405 2.045 4.09
151 1 16.36 2.045 6.135
152 1 18.405 0.0 6.135
153 1 16.36 0.0 8.18
154 1 18.405 2.045 8.18
155 1 16.36 2.045 10.225
156 1 18.405 0.0 10.225
157 1 16.36 4.09 0.0
158 1 18.405 6.135 0.0
159 1 16.36 6.135 2.045
160 1 18.405 4.09 2.045
161 1 16.36 4.09 4.09
162 1 18.405 6.135 4.09
163 1 16.36 6.135 6.135
164 1 18.405 4.09 6.135
165 1 16.36 4.09 8.18
166 1 18.405 6.135 8.18
167 1 16.36 6.135 10.225
168 1 18.405 4.09 10.225
169 1 16.36 8.18 0.0
170 1 18.405 10.225 0.0
171 1 16.36 10.225 2.045
172 1 18.405 8.18 2.045
173 1 16.36 8.18 4.09
174 1 18.405 10.225 4.09
175 1 16.36 10.225 6.135
176 1 18.405 8.18 6.135
177 1 16.36 8.18 8.18
178 1 18.405 10.225 8.18
179 1 16.36 10.225 10.225
180 1 18.405 8.18 10.225
181 1 20.45 0.0 0.0
182 1 22.494999999999997 2.045 0.0
183 1 20.45 2.045 2.045
184 1 22.494999999999997 0.0 2.045
185 1 20.45 0.0 4.09
186 1 22.494999999999997 2.045 4.09
187 1 20.45 2.045 6.135
188 1 22.494999999999997 0.0 6.135
189 1 20.45 0.0 8.18
190 1 22.494999999999997 2.045 8.18
191 1 20.45 2.045 10.225
192 1 22.494999999999997 0.0 10.225
193 1 20.45 4.09 0.0
194 1 22.494999999999997 6.135 0.0
195 1 20.45 6.135 2.045
196 1 22.494999999999997 4.09 2.045
197 1 20.45 4.09 4.09
198 1 22.494999999999997 6.135 4.09
199 1 20.45 6.135 6.135
200 1 22.494999999999997 4.09 6.135
201 1 20.45 4.09 8.18
202 1 22.494999999999997 6.135 8.18
203 1 20.45 6.135 10.225
204 1 22.494999999999997 4.09 10.225
205 1 20.45 8.18 0.0
206 1 22.494999999999997 10.225 0.0
207 1 20.45 10.225 2.045
208 1 22.494999999999997 8.18 2.045
209 1 20.45 8.18 4.09
210 1 22.494999999999997 10.225 4.09
211 1 20.45 10.225 6.135
212 1 22.494999999999997 8.18 6.135
213 1 20.45 8.18 8.18
214 1 22.494999999999997 10.225 8.18
215 1 20.45 10.225 10.225
216 1 22.494999999999997 8.18 10.225
217 1 24.54 0.0 0.0
218 1 26.585 2.045 0.0
219 1 24.54 2.045 2.045
220 1 26.585 0.0 2.045
221 1 24.54 0.0 4.09
222 1 26.585 2.045 4.09
223 1 24.54 2.045 6.135
224 1 26.585 0.0 6.135
225 1 24.54 0.0 8.18
226 1 26.585 2.045 8.18
227 1 24.54 2.045 10.225
228 1 26.585 0.0 10.225
229 1 24.54 4.09 0.0
230 1 26.585 6.135 0.0
231 1 24.54 6.135 2.045
232 1 26.585 4.09 2.045
233 1 24.54 4.09 4.09
234 1 26.585 6.135 4.09
235 1 24.54 6.135 6.135
236 1 26.585 4.09 6.135
237 1 24.54 4.09 8.18
238 1 26.585 6.135 8.18
239 1 24.54 6.135 10.225
240 1 26.585 4.09 10.225
241 1 24.54 8.18 0.0
242 1 26.585 10.225 0.0
243 1 24.54 10.225 2.045
244 1 26.585 8.18 2.045
245 1 24.54 8.18 4.09
246 1 26.585 10.225 4.09
247 1 24.54 10.225 6.135
248 1 26.585 8.18 6.135
249 1 24.54 8.18 8.18
250 1 26.585 10.225 8.18
251 1 24.54 10.225 10.225
252 1 26.585 8.18 10.225
253 1 28.63 0.0 0.0
254 1 30.674999999999997 2.045 0.0
255 1 28.63 2.045 2.045
256 1 30.674999999999997 0.0 2.045
257 1 28.63 0.0 4.09
258 1 30.674999999999997 2.045 4.09
259 1 28.63 2.045 6.135
260 1 30.674999999999997 0.0 6.135
261 1 28.63 0.0 8.18
262 1 30.674999999999997 2.045 8.18
263 1 28.63 2.045 10.225
264 1 30.674999999999997 0.0 10.225
265 1 28.63 4.09 0.0
266 1 30.674999999999997 6.135 0.0
267 1 28.63 6.135 2.045
268 1 30.674999999999997 4.09 2.045
269 1 28.63 4.09 4.09
270 1 30.674999999999997 6.135 4.09
271 1 28.63 6.135 6.135
272 1 30.674999999999997 4.09 6.135
273 1 28.63 4.09 8.18
274 1 30.674999999999997 6.135 8.18
275 1 28.63 6.135 10.225
276 1 30.674999999999997 4.09 10.225
277 1 28.63 8.18 0.0
278 1 30.674999999999997 10.225 0.0
279 1 28.63 10.225 2.045
280 1 30.674999999999997 8.18 2.045
281 1 28.63 8.18 4.09
282 1 30.674999999999997 10.225 4.09
283 1 28.63 10.225 6.135
284 1 30.674999999999997 8.18 6.135
285 1 28.63 8.18 8.18
286 1 30.674999999999997 10.225 8.18
287 1 28.63 10.225 10.225
288 1 30.674999999999997 8.18 10.225
289 1 32.72 0.0 0.0
290 1 34.765 2.045 0.0
291 1 32.72 2.045 2.045
292 1 34.765 0.0 2.045
293 1 32.72 0.0 4.09
294 1 34.765 2.045 4.09
295 1 32.72 2.045 6.135
296 1 34.765 0.0 6.135
297 1 32.72 0.0 8.18
298 1 34.765 2.045 8.18
299 1 32.72 2.045 10.225
300 1 34.765 0.0 10.225
301 1 32.72 4.09 0.0
302 1 34.765 6.135 0.0
303 1 32.72 6.135 2.045
304 1 34.765 4.09 2.045
305 1 32.72 4.09 4.09
306 1 34.765 6.135 4.09
307 1 32.72 6.135 6.135
308 1 34.765 4.09 6.135
309 1 32.72 4.09 8.18
310 1 34.765 6.135 8.18
311 1 32.72 6.135 10.225
312 1 34.765 4.09 10.225
313 1 32.72 8.18 0.0
314 1 34.765 10.225 0.0
315 1 32.72 10.225 2.045
316 1 34.765 8.18 2.045
317 1 32.72 8.18 4.09
318 1 34.765 10.225 4.09
319 1 32.72 10.225 6.135
320 1 34.765 8.18 6.135
321 1 32.72 8.18 8.18
322 1 34.765 10.225 8.18
323 1 32.72 10.225 10.225
324 1 34.765 8.18 10.225
325 1 36.81 0.0 0.0
326 1 38.855 2.045 0.0
327 1 36.81 2.045 2.045
328 1 38.855 0.0 2.045
329 1 36.81 0.0 4.09
330 1 38.855 2.045 4.09
331 1 36.81 2.045 6.135
332 1 38.855 0.0 6.135
333 1 36.81 0.0 8.18
334 1 38.855 2.045 8.18
335 1 36.81 2.045 10.225
336 1 38.855 0.0 10.225
337 1 36.81 4.09 0.0
338 1 38.855 6.135 0.0
339 1 36.81 6.135 2.045
340 1 38.855 4.09 2.045
341 1 36.81 4.09 4.09
342 1 38.855 6.135 4.09
343 1 36.81 6.135 6.135
344 1 38.855 4.09 6.135
345 1 36.81 4.09 8.18
346 1 38.855 6.135 8.18
347 1 36.81 6.135 10.225
348 1 38.855 4.09 10.225
349 1 36.81 8.18 0.0
350 1 38.855 10.225 0.0
351 1 36.81 10.225 2.045
352 1 38.855 8.18 2.045
353 1 36.81 8.18 4.09
354 1 38.855 10.225 4.09
355 1 36.81 10.225 6.135
356 1 38.855 8.18 6.135
357 1 36.81 8.18 8.18
358 1 38.855 10.225 8.18
359 1 36.81 10.225 10.225
360 1 38.855 8.18 10.225
