LAMMPS data file via write_data, version 17 Apr 2024, timestep = 1000, units = metal

2440 atoms
2 atom types

-0.7022728914537896 73.22472592657357 xlo xhi
0 21.66 ylo yhi
0 21.66 zlo zhi

Masses

1 63.546
2 107.8682

Atoms # atomic

3 1 -0.3483833685762149 1.9512294238077106 1.761133176329932 0 0 0
6 1 1.4840280269864192 1.8714535699021222 3.5384845064240094 0 0 0
28 1 1.4671915560904494 3.6295654060148226 1.7666410423281398 0 0 0
29 1 -0.2873258193966076 3.8308060127863195 3.5296967758385667 0 0 0
147 1 3.4159484027189095 1.8418998365223025 1.8664165168780262 0 0 0
173 1 3.253435141429934 3.6117444746716303 3.6402088438394884 0 0 0
4 1 1.5392239449186642 0.10304755742674392 1.744206889885568 0 0 0
5 1 -0.37997040891128075 0.1071083076857692 3.6236991389016775 0 0 0
8 1 1.4433172381184811 21.648680486895575 5.499562193378847 0 -1 0
32 1 1.5343742755465621 3.7230649324413476 5.545860995164269 0 0 0
149 1 3.3862001752546944 0.15945412640888815 3.720951106367998 0 0 0
7 1 -0.25489560468308214 1.9797799757786103 5.400148358511613 0 0 0
145 1 3.5071547779156953 0.10887680357521795 21.65000379829111 0 0 -1
150 1 5.454629489741798 2.0029137965979076 3.6957001180504734 0 0 0
172 1 5.368968461161726 3.6578597054493383 1.9488808101314463 0 0 0
291 1 7.235070934018258 1.7895477673244526 1.7073994165146593 0 0 0
294 1 8.991213923891703 1.870324514495419 3.5693120375505423 0 0 0
316 1 9.070819956055983 3.8115993104383215 1.8259617283791034 0 0 0
317 1 7.3038253297419455 3.6565777977190423 3.6229802627851324 0 0 0
292 1 9.276475782255751 0.05167100594719974 1.7821911541224096 0 0 0
295 1 7.261059387696522 1.9225017867377734 5.512871675297648 0 0 0
148 1 5.438705873807767 0.12208276157775515 1.9682724971555523 0 0 0
320 1 8.999754981184731 3.783386534330769 5.534083526803379 0 0 0
313 1 7.084548305392196 3.623463418467891 0.1664923711862829 0 0 0
146 1 5.332951600950272 1.9421463744672558 0.13724945501322336 0 0 0
435 1 10.943485992760696 1.9363412316458417 1.801936363681333 0 0 0
438 1 12.947483579195099 1.9887899905290733 3.5674309138285003 0 0 0
460 1 12.840660436033124 3.8214359783234944 1.6994336894336521 0 0 0
461 1 10.936509044479378 3.6139230567862675 3.6975057998394356 0 0 0
437 1 10.97322259082124 0.20507080215726284 3.6059083895884605 0 0 0
434 1 12.703281300246255 1.855346258935872 21.459875497788023 0 0 -1
459 1 10.82206733825745 5.657689480435706 1.8637513355331428 0 0 0
436 1 12.863665272446012 0.18960377504657677 1.773656829444274 0 0 0
464 1 12.77373311325698 3.7665089972071955 5.524794007934433 0 0 0
579 1 14.74830772324481 2.1132385835999266 1.7717600876420068 0 0 0
605 1 14.700454883787298 3.707438730364207 3.609169039802168 0 0 0
582 1 16.502099960281843 1.9145347717879686 3.657485368449026 0 0 0
604 1 16.69921813755957 3.7642379471054133 1.8129107713476837 0 0 0
723 1 18.199667811438125 1.780267450959754 1.6890002312151147 0 0 0
749 1 18.556703758581275 3.6913670461445744 3.5769986163410468 0 0 0
608 1 16.72558594081791 3.541608162613726 5.44935657019522 0 0 0
580 1 16.40788713614074 0.04178789271497914 1.803761118663599 0 0 0
581 1 14.653774615609636 0.057237019088211674 3.6024216038278354 0 0 0
584 1 16.685231025620766 0.14791673457052487 5.497984009122331 0 0 0
583 1 14.689855973390324 1.8866406810849068 5.293831932698127 0 0 0
725 1 18.401690360930946 0.01989242505606211 3.555566423454502 0 0 0
726 1 20.26809527501175 1.7747841773482373 3.442359200379966 0 0 0
748 1 20.18288764319626 3.6039167107468515 1.884683919461928 0 0 0
867 1 22.1211116175841 1.8162712052345822 1.6559922611943572 0 0 0
893 1 21.94831978061216 3.6987345265253437 3.626399263433369 0 0 0
724 1 20.30439058205432 0.09312862486862089 1.7461067020684535 0 0 0
895 1 22.27757964557632 5.3635703149195075 5.469688948944957 0 0 0
870 1 23.93957212754343 1.9548595201037224 3.6663544436173305 0 0 0
868 1 24.075437077447972 0.0282153223316516 1.7681716037508488 0 0 0
892 1 24.11403293902328 3.6353971662617823 1.8801162408103693 0 0 0
750 1 20.39472726577155 5.615713027587478 3.776556296152933 0 0 0
869 1 22.160252803377276 0.029841884498811054 3.4815652478087973 0 0 0
896 1 24.105646049996498 3.573049881972129 5.413704140692376 0 0 0
889 1 22.21238445810243 3.7127841867342473 0.0683748085441069 0 0 0
1011 1 25.88820338744443 1.7694343604247977 1.8621647159304957 0 0 0
1014 1 27.669580365564034 1.8138234284167536 3.5670179629115184 0 0 0
1036 1 27.61700371371509 3.579878177994247 1.5456851800787523 0 0 0
1037 1 25.93936494387348 3.6323829401374224 3.546934005996084 0 0 0
1010 1 27.544870482505793 1.7505607044036178 21.522175121312014 0 0 -1
894 1 23.982097765968362 5.508921072701448 3.664873473432836 0 0 0
1016 1 27.639252975283725 0.14430773079224005 5.47883077572637 0 0 0
1040 1 27.76378437051393 3.4402955605132495 5.282022145849543 0 0 0
1155 1 29.614229748026897 1.855992825596032 1.6416636803267202 0 0 0
1181 1 29.63990697362728 3.6197281872600393 3.5245743545946406 0 0 0
1158 1 31.395075250415182 1.8793997139375065 3.498433330391851 0 0 0
1180 1 31.430534190607354 3.596252624011222 1.7233923345806759 0 0 0
1299 1 33.43205299840482 1.916382977605511 1.7086059923218206 0 0 0
1325 1 33.28109323322743 3.5390654251203975 3.5745917763166863 0 0 0
1156 1 31.612028392911974 0.07847062661304298 1.6575509088304496 0 0 0
1159 1 29.71185924317523 1.8575782937386913 5.380462810952176 0 0 0
1301 1 33.389239751944345 0.1994908860199262 3.6353530849229045 0 0 0
1183 1 29.436283353086758 5.47406750824786 5.222933985971138 0 0 0
1184 1 31.618750399704787 3.567449144640298 5.335696926300583 0 0 0
1327 1 33.1126719419265 5.443866520266695 5.3109971677149375 0 0 0
1302 1 35.360280723651606 1.9760425203355234 3.6358973855042334 0 0 0
1324 1 35.262563181514956 3.6542653721547103 1.7451966050587862 0 0 0
1443 2 37.33951459764438 1.9017441732986202 1.8287523613535355 0 0 0
1465 2 37.430289194792806 3.8868372496533934 4.0452652735457715 0 0 0
1300 1 35.1857458052044 0.02122555953487704 1.8409050076598767 0 0 0
1304 1 35.39034117128985 0.16109073490856873 5.401692249677943 0 0 0
1446 2 39.43723778530166 1.762637779027742 3.9214971144729294 0 0 0
1464 2 39.415941638821664 3.723226152311952 1.9012751833704877 0 0 0
1543 2 41.41762196901556 1.5806823014231803 1.906817802160823 0 0 0
1546 2 43.238798692917314 1.638970368802124 4.069491868212803 0 0 0
1564 2 43.473982990946844 3.641699534249992 2.0667253553045803 0 0 0
1565 2 41.45577964286411 3.72323787394819 4.071207498689304 0 0 0
1643 2 44.7787384617834 1.22082034847399 1.6362945791982113 0 0 0
1665 2 45.24995125072159 3.840450382170188 4.2900028248986 0 0 0
1646 2 46.60022682024782 1.409647264205161 3.8785710360969907 0 0 0
1664 2 46.267784076665535 3.8904972184951814 1.3594004701996025 0 0 0
1743 2 48.113180763299226 1.570945778983741 1.2003305094446604 0 0 0
1765 2 47.9385645304426 3.9137593009308898 3.57343121556672 0 0 0
1746 2 49.88892943042987 1.5957502477966736 3.7475748033137064 0 0 0
1764 2 49.78092373549086 3.700737891681673 1.6200446580933763 0 0 0
1843 2 51.8382062620871 1.648366550398758 1.7139310590492725 0 0 0
1865 2 51.83651176601034 3.833357821339964 3.7854902525706264 0 0 0
1846 2 53.63906107541059 1.665474717563217 3.863841435504815 0 0 0
1864 2 53.88066242816331 3.735328245757804 1.9429010823979964 0 0 0
1943 2 55.69941352542035 1.6164973983060766 1.734895149348046 0 0 0
1946 2 57.92414902257921 1.6197302984873083 4.0424838451978085 0 0 0
1964 2 58.092061487462175 3.4882858860676724 1.8529637497224307 0 0 0
1965 2 56.05171820321577 3.7107559865526594 3.8873293351933995 0 0 0
2043 2 59.81577263292386 1.201432804714461 1.6885634782073442 0 0 0
2046 2 61.44954399544856 1.600513203940625 4.116182363744332 0 0 0
2064 2 61.616886161550944 3.34694042994996 1.88202452540655 0 0 0
2065 2 59.887538450906675 3.8194966594781437 3.83976116081038 0 0 0
2165 2 63.4564021176599 3.811148870320381 3.9168794484363647 0 0 0
2143 2 63.47495565885125 1.5099137430350027 1.8963905671191934 0 0 0
2146 2 65.3454038160635 1.5365736159480217 3.9534460287356237 0 0 0
2164 2 65.14652130069496 3.84640896097167 1.881979354643236 0 0 0
2243 2 66.97427560398852 1.5631572589061058 1.6724762264871376 0 0 0
2265 2 67.051974658783 3.965235802085836 3.846628957162075 0 0 0
2246 2 68.86535126773003 1.725742410880811 3.98088394960903 0 0 0
2264 2 69.07131145203563 3.602193486217675 1.6011396903892259 0 0 0
2343 2 71.04394473826981 1.4950825658953142 1.5738123588715842 0 0 0
2346 2 72.90641896936556 1.6185452243784615 3.68624683971218 0 0 0
2364 2 72.83735084737357 3.5574874847953857 1.5916536517905653 0 0 0
2365 2 70.87232694011287 3.5587421489672786 3.8219220734197163 0 0 0
27 1 -0.20776792034438596 5.561986497732768 1.8444907305617637 0 0 0
171 1 3.5067425053819927 5.480802065245968 1.843218703967691 0 0 0
30 1 1.5774152779268995 5.567197899676743 3.7520228923152463 0 0 0
51 1 -0.5617050390394974 9.011189548476088 1.8639982200405312 0 0 0
52 1 1.6098960227195493 7.3173893778985715 1.8365679031838509 0 0 0
53 1 -0.2703432982390229 7.545990827601444 3.7432458425310258 0 0 0
54 1 1.4876345687958268 9.287061230797233 3.587084442399628 0 0 0
195 1 3.4992643918166513 9.206143921658656 1.972837548841644 0 0 0
197 1 3.5770742060498537 7.2819106087484675 3.624309043733578 0 0 0
193 1 3.3678236986926606 7.370638880220417 0.06214155500390965 0 0 0
31 1 -0.35666069972125714 5.573492404472503 5.43230599102119 0 0 0
76 1 1.4917307750542939 10.91752012343302 1.8412458654626171 0 0 0
56 1 1.575816275614264 7.444171656752203 5.324369426014505 0 0 0
55 1 -0.2920632636547346 9.22638287655362 5.424239186326073 0 0 0
199 1 3.506985296171347 9.183176929622118 5.295690455898771 0 0 0
26 1 1.6272011640711979 5.614952535321762 0.10237938428350217 0 0 0
315 1 7.006376617574707 5.537535543351385 1.8982518905051042 0 0 0
318 1 8.888423741133744 5.478565226221732 3.6563169547346654 0 0 0
174 1 5.364071552732261 5.438831325290881 3.7430353605391287 0 0 0
196 1 5.347929766268651 7.318563237661479 1.9353675987973564 0 0 0
198 1 5.325390167030551 9.162799199860796 3.5754811366383237 0 0 0
339 1 7.067117913993734 9.132002530608712 1.902728316331879 0 0 0
340 1 8.889078730379957 7.334026910710315 1.7762743327576007 0 0 0
341 1 7.19595171893429 7.257673318390312 3.6028494176756394 0 0 0
342 1 9.118145416750378 9.233783657770958 3.6289151770659345 0 0 0
337 1 7.293765886127215 7.305597352743611 21.492567526232715 0 0 -1
200 1 5.336861372153831 7.337874239585617 5.5451569357753066 0 0 0
194 1 5.332881317184352 9.10786166014186 0.040461421593423676 0 0 0
319 1 7.201854893054133 5.511166138122215 5.6491833582087665 0 0 0
314 1 9.121955661719076 5.406399848748404 21.573363724369234 0 0 -1
170 1 5.377930032013807 5.6070417067727245 21.657197532773264 0 0 -1
338 1 9.070118114759065 9.320109580815306 0.013214338636803906 0 0 0
462 1 12.74755145223395 5.5482480419051345 3.606432636602842 0 0 0
483 1 10.836347091147164 9.073488162369232 1.666413612807034 0 0 0
484 1 12.65995536106997 7.2213694925384235 1.6544739239467066 0 0 0
485 1 10.746696275784469 7.3529367742833225 3.5397819652224833 0 0 0
486 1 12.597516444151418 9.065833353864035 3.602282773322531 0 0 0
482 1 12.78625024941029 9.030412381802625 21.598878425338814 0 0 -1
488 1 12.783980904773149 7.123529299372357 5.412094750476453 0 0 0
458 1 12.839771233809167 5.5158115499238445 21.596445537048744 0 0 -1
481 1 10.86098250492788 7.286121572762402 21.54043416321468 0 0 -1
603 1 14.68408372107772 5.434003990801857 1.7065307756401087 0 0 0
747 1 18.680271935673353 5.470941169682666 1.8648671442773734 0 0 0
751 1 18.250829365478282 5.4715556962076 5.358991197920891 0 0 0
606 1 16.469357980969637 5.4941396522549955 3.5185543668518937 0 0 0
602 1 16.60899492393107 5.516237001944616 21.58056809997238 0 0 -1
627 1 14.60646160667809 8.968894396095578 1.8387725237807249 0 0 0
629 1 14.72602273829715 7.266585793529543 3.757891890815523 0 0 0
628 1 16.481751419403537 7.145942825621428 1.8203833957980218 0 0 0
630 1 16.714518695377425 9.139917325630192 3.6115994447983613 0 0 0
771 1 18.511264717709842 9.135949113551376 1.736813304166686 0 0 0
773 1 18.53020739693485 7.355396440650726 3.502827451823578 0 0 0
769 1 18.406090451052176 7.261615957359799 0.12975007988249812 0 0 0
632 1 16.53917404924849 7.232026793812038 5.311964196056144 0 0 0
626 1 16.569413929155335 9.03687555058575 21.642414350511793 0 0 -1
891 1 22.180875166959815 5.433872535876064 1.9020567976958405 0 0 0
772 1 20.43431170582066 7.283541348122012 1.6818837275282579 0 0 0
774 1 20.259433702393803 9.084419386302764 3.5783825156227835 0 0 0
915 1 22.15169457822295 9.11069433718694 1.8747481058178401 0 0 0
917 1 22.15104334460627 7.443498928719798 3.7157100807425456 0 0 0
913 1 22.173546862354076 7.267364506700158 21.586685745022518 0 0 -1
776 1 20.26896540184865 7.23364129216861 5.564464167174001 0 0 0
918 1 23.97466108398491 9.055344894904234 3.696615927541089 0 0 0
796 1 20.318313621482467 10.9725540101029 1.8259535390537733 0 0 0
746 1 20.399074664237872 5.531131907037647 21.592855170276408 0 0 -1
1038 1 27.64795992170886 5.360827630994311 3.3804810719377154 0 0 0
1035 1 25.921260768450722 5.4173474886752375 1.6552620401918179 0 0 0
916 1 23.907478192197626 7.191591925461084 1.6103138191740332 0 0 0
1059 1 25.759439163622897 9.094402790569633 1.8787571596027886 0 0 0
1060 1 27.626906984533413 7.292045577577341 1.5913227460196961 0 0 0
1061 1 25.885246442024023 7.214725319785292 3.5732700727262054 0 0 0
1062 1 27.599361960067117 8.970096252870524 3.4658039634845106 0 0 0
1084 1 27.551634212737145 10.871959196701033 1.7241636341047044 0 0 0
1057 1 25.750652931051842 7.320642928542956 21.503757695116644 0 0 -1
1081 1 25.972116832224017 11.068878178432602 21.624780220622867 0 0 -1
1064 1 27.615650650584424 7.238945759144332 5.419331279426969 0 0 0
1058 1 27.649971506703015 9.073085356688546 21.622232953277063 0 0 -1
1182 1 31.400626338969232 5.395101817815633 3.5455328108316473 0 0 0
1179 1 29.447064941036217 5.3771297713889705 1.6198303472750841 0 0 0
1323 1 33.282157079378585 5.18713750069846 1.7869736343090892 0 0 0
1203 1 29.528563946982114 9.050237299055759 1.8210956518182149 0 0 0
1205 1 29.42906315072475 7.2732071891385655 3.5342155840727627 0 0 0
1204 1 31.37417955373853 7.235706181606095 1.7060972140575206 0 0 0
1206 1 31.449883122066417 8.961256369286557 3.4732090127761936 0 0 0
1347 1 33.25668652646557 9.153252563689287 1.675593093907559 0 0 0
1349 1 33.266551100473166 7.230704808748217 3.5606903088968953 0 0 0
1351 1 33.10267028057058 8.995406119568631 5.456480293533114 0 0 0
1228 1 31.46293200170445 10.918442249146057 1.846895951669791 0 0 0
1202 1 31.308568174652372 9.034747365588913 0.00834473669235278 0 0 0
1201 1 29.603044270514307 7.337999807300531 21.53717475008055 0 0 -1
1326 1 35.1353443066781 5.328768351250541 3.6122685072647296 0 0 0
1348 1 35.21735952797793 7.187321348440539 1.8076247348613073 0 0 0
1350 1 34.81592749796336 9.061753419081843 3.5675819412699776 0 0 0
1463 2 37.19941635429916 5.469694865061975 1.9342806647241098 0 0 0
1483 2 37.21561142841275 9.456754495800542 2.2041806753513837 0 0 0
1485 2 37.23411855774783 7.588298685991868 3.9983748023669836 0 0 0
1346 1 35.1370361946857 9.104321468106042 21.64712622709577 0 0 -1
1486 2 39.12999177240985 10.059467208768657 4.08591420391716 0 0 0
1466 2 39.31847682153233 5.702891255436905 4.102342877093994 0 0 0
1484 2 39.30569649060181 7.547829994582967 1.9944212794831515 0 0 0
1563 2 41.40730477013581 5.610754776587044 2.0658845324076003 0 0 0
1566 2 43.363700314156674 5.776994428129159 4.298180687748486 0 0 0
1583 2 39.99318361272444 10.230233010195542 1.3229851786154534 0 0 0
1584 2 42.16119943177826 8.20207834508995 1.3400687240552294 0 0 0
1585 2 41.231996552595916 7.772082416894455 3.9784998021697557 0 0 0
1586 2 42.03114825660564 10.460435147836494 3.2807050320117024 0 0 0
1663 2 44.26538958336006 6.097263939515786 1.4233376386360062 0 0 0
1683 2 44.190679428923396 10.362913300979384 1.4141440995017136 0 0 0
1685 2 44.08759257313031 8.508767268324565 3.5191206520046605 0 0 0
1666 2 46.19565016005031 6.272245639759041 3.607349889782515 0 0 0
1684 2 46.16855712489438 8.322070507965119 1.5817153126262176 0 0 0
1686 2 46.273604522578346 10.506478609344244 3.4756967630782434 0 0 0
1763 2 48.20812349135048 5.9261374845301695 1.4325292123436977 0 0 0
1783 2 48.225676963617595 10.143709777246054 1.526969439871556 0 0 0
1785 2 48.1851193351729 8.315995125871492 3.5550609435419207 0 0 0
1766 2 49.769754154181626 5.899133020618276 3.7649538371499918 0 0 0
1784 2 50.18965197479921 7.873232319064765 1.6499131109995515 0 0 0
1786 2 50.21617711480712 10.234157778296296 3.4873745438582793 0 0 0
1863 2 52.01070619715871 5.755933339404322 1.743637279485012 0 0 0
1883 2 52.35196696228115 10.161920210732871 1.4890649055716445 0 0 0
1885 2 51.928815123367364 8.07353012853509 3.712734598527491 0 0 0
1866 2 54.03304104261303 5.739776568266985 3.7991640748680244 0 0 0
1884 2 54.30444969705551 7.91379260942541 1.842414401720239 0 0 0
1886 2 54.23221805255425 10.174713937447299 3.7496956825009287 0 0 0
1963 2 56.21064290533383 5.796679819011826 1.8366780101473286 0 0 0
1966 2 57.979158834142055 5.9372925996864705 3.9972153255000125 0 0 0
1983 2 56.31897780814344 10.05546355218272 1.9751052601367727 0 0 0
1984 2 58.278818307501005 7.84251526444188 1.8980057125048393 0 0 0
1985 2 56.18686743702854 7.89126596876753 3.9357648290493916 0 0 0
1986 2 58.27493653209786 10.052909522734565 3.990535193429761 0 0 0
2063 2 60.00506883667369 5.779323261165052 1.804899744066462 0 0 0
2066 2 61.830361167481755 5.960310789100467 3.9201675101578766 0 0 0
2083 2 59.49330601668058 10.230629982620222 1.5273767318078129 0 0 0
2084 2 61.521836067509035 8.232690749444668 1.7343771147133797 0 0 0
2085 2 60.00759431107376 7.997026484213711 4.029833206222908 0 0 0
2086 2 61.27730980267866 10.501089275882585 3.7974314489778367 0 0 0
2163 2 63.07252898938725 5.943827438268174 1.40436901984473 0 0 0
2185 2 63.319369090533655 8.493216897843437 3.806276461317074 0 0 0
2183 2 63.41661533958327 10.591324220086754 1.7784880038968376 0 0 0
2166 2 64.86035084866027 6.043257628086358 3.736472482121131 0 0 0
2184 2 65.10860466402723 8.19525790842683 1.66284877994774 0 0 0
2186 2 65.56049508140137 10.406674011633866 3.7775538090306338 0 0 0
2263 2 67.10932211266505 5.85923414220249 1.649918836242868 0 0 0
2283 2 67.33131528968296 10.302035816911166 1.495699102604596 0 0 0
2285 2 67.09577575858178 8.094999119173835 3.7190999106740033 0 0 0
2266 2 69.25010316023324 5.992522354722883 3.9054910171868396 0 0 0
2284 2 69.08150910158358 7.8024974068120585 1.5667850808068022 0 0 0
2286 2 68.9862566566221 10.207703408149834 3.834108946646692 0 0 0
2363 2 70.9609153534133 5.797177288803379 1.6265479369516842 0 0 0
2366 2 72.69687498885462 5.656006572599404 3.720612884058742 0 0 0
2383 2 71.04841880059087 10.40525784866433 1.5555930695314721 0 0 0
2384 2 72.78930232051266 8.113253271363487 1.710569697255349 0 0 0
2385 2 71.02971817874433 8.075798448666196 3.8702490386778967 0 0 0
2386 2 72.57447784110488 10.197733436856687 3.7355508510432522 0 0 0
77 1 -0.4663483678853361 11.034438734877032 3.4699444460134607 0 0 0
221 1 3.3452007633692715 11.029737651235244 3.6478574487420135 0 0 0
75 1 -0.08904800812709472 12.871227272418295 1.7403451405956678 0 0 0
78 1 1.491291223894477 12.692109408527887 3.6524449602776787 0 0 0
100 1 1.486256624289273 14.639150067379568 1.862456834992152 0 0 0
101 1 -0.2762010106927331 14.282950474212683 3.7272284583036863 0 0 0
219 1 3.3262830607689704 12.760432610372883 1.8595226169986223 0 0 0
245 1 3.2267054760430876 14.577502093890605 3.7151232008447286 0 0 0
74 1 1.5820971920732663 12.712654691483827 0.04199873426748654 0 0 0
241 1 3.3589687085859548 14.552998039286585 0.16586715424817822 0 0 0
217 1 3.5532666511814446 10.968429351176018 0.05228197493592695 0 0 0
97 1 -0.31812059453483965 14.708115328347573 0.003265523493345098 0 0 0
104 1 1.4820492286223366 14.62007762427828 5.500072614192519 0 0 0
365 1 7.10261317170161 10.99292006237481 3.5953082453844667 0 0 0
364 1 9.08526428618471 11.054943638260013 1.8866474761764869 0 0 0
220 1 5.338565664007994 11.001717568808091 1.864530309477021 0 0 0
222 1 5.232813917433859 12.809853719397818 3.6379655940982385 0 0 0
244 1 5.274304199850502 14.616776572134825 1.8131354607880312 0 0 0
363 1 7.109536046305842 12.82040183735199 1.8568595997718338 0 0 0
366 1 9.064699591177154 12.714555320378023 3.657835820383341 0 0 0
388 1 9.141653924058499 14.553918258233928 1.8942846336012176 0 0 0
389 1 7.286477382234413 14.640886509918083 3.54285476390834 0 0 0
218 1 5.358680466196426 12.772313415551363 21.581788704386845 0 0 -1
361 1 7.16160416627507 10.972559233900348 0.01812655782685405 0 0 0
392 1 9.080660114550277 14.56178551702696 5.393173833270468 0 0 0
368 1 8.960937512786568 11.089947703295609 5.474983707499929 0 0 0
367 1 7.193602980878942 12.907250424649266 5.410133006173418 0 0 0
224 1 5.181722019171203 11.010615631264498 5.268417399579756 0 0 0
505 1 10.933062021744737 11.00131228846868 21.573992100149766 0 0 -1
509 1 11.042737662470614 10.97733189872752 3.8328414959375148 0 0 0
508 1 12.856845762061644 10.975210163547708 1.7726909744562602 0 0 0
507 1 11.10799792270211 12.736555130933123 1.764361281903555 0 0 0
510 1 12.944156474559641 12.731053542077873 3.5778285807278043 0 0 0
532 1 12.83340426887994 14.534004492797816 1.8956871766526495 0 0 0
533 1 10.857729458261339 14.536843568986374 3.619741301279345 0 0 0
536 1 12.846748496899814 14.384338489036722 5.363567776531432 0 0 0
512 1 12.878558695019668 10.98592141400489 5.500099510368764 0 0 0
653 1 14.61766705516527 10.82649409392511 3.608119630382749 0 0 0
652 1 16.388811611510942 10.79567068791151 1.7577948641241847 0 0 0
797 1 18.50130498965912 10.880145184447132 3.581873390681289 0 0 0
651 1 14.731729548529453 12.705659669260973 1.7283236447516297 0 0 0
677 1 14.714415245234068 14.491605488208268 3.7940307439902177 0 0 0
654 1 16.568733513437575 12.717883974867803 3.662809491850751 0 0 0
676 1 16.611487885145745 14.40226907822054 1.870924197455471 0 0 0
795 1 18.426290577985974 12.690959714356843 1.9390355167298743 0 0 0
821 1 18.527979776309767 14.594538987900002 3.708506660597375 0 0 0
799 1 18.37201272350719 12.780010817486168 5.5489033336329925 0 0 0
655 1 14.781494956156646 12.569666932899247 5.544962986902421 0 0 0
680 1 16.5622839783407 14.6126330121685 5.541662025864714 0 0 0
649 1 14.696771536015632 10.686080441685768 0.06446919196454758 0 0 0
793 1 18.42183379968081 10.837343768563798 0.01390061452170602 0 0 0
650 1 16.665682386257064 12.554812402875118 0.029706720681378314 0 0 0
673 1 14.695061178291892 14.562002458460986 0.19868217042562955 0 0 0
940 1 24.07515806324686 11.088564019215484 1.7748915655509545 0 0 0
941 1 22.23193820404164 11.004072925963895 3.621953484782156 0 0 0
798 1 20.247420481155526 12.83610774016516 3.7093351677820325 0 0 0
820 1 20.315142710331518 14.509049618543568 1.8515463216650192 0 0 0
939 1 22.18270431411369 12.719288044595068 1.8605690871766996 0 0 0
965 1 22.079948455694733 14.581147900396767 3.80975582147322 0 0 0
942 1 24.07134278746526 12.766631007923438 3.7338187488931314 0 0 0
824 1 20.403107360180407 14.709147427087652 5.559777358733017 0 0 0
964 1 24.00480146540761 14.444152826852102 1.9685425090339417 0 0 0
937 1 22.180538184063032 10.924268022422927 21.629857112187473 0 0 -1
818 1 20.367509796958473 16.266526896534078 21.627912643322702 0 0 -1
961 1 22.27044206607532 14.590072249196547 0.11711807880954474 0 0 0
1085 1 25.78229904980668 11.00981875512766 3.6216156094791465 0 0 0
938 1 24.0750589608459 12.672142476844499 21.50739855084242 0 0 -1
1083 1 25.93044211827329 12.76165755695659 1.7563103632181318 0 0 0
1086 1 27.772666050438445 12.704098896953322 3.4514373549900514 0 0 0
1108 1 27.93746958385251 14.502673878576047 1.7072788477096954 0 0 0
1109 1 26.003043682895285 14.466391319297811 3.563245113942642 0 0 0
1112 1 27.705481428866356 14.530170543871478 5.280404377389786 0 0 0
1082 1 27.72470829591795 12.83293935657515 21.51219373215219 0 0 -1
1369 1 33.35442958592365 10.954323603273371 0.007867369466334703 0 0 0
1373 1 33.170002679064105 10.853360988114215 3.6138440674472188 0 0 0
1229 1 29.57764745257197 10.784900480522298 3.561911128575684 0 0 0
1227 1 29.530296872524538 12.611947216374528 1.6031520237273418 0 0 0
1253 1 29.639596227975108 14.633306397934842 3.502281934183134 0 0 0
1230 1 31.126628204198937 12.682095193474844 3.530401360241653 0 0 0
1252 1 31.450460370572202 14.516118992747312 1.6675280960328267 0 0 0
1371 1 33.10989614084993 12.691470074466748 1.7806681543171838 0 0 0
1397 1 32.892629812849215 14.480732465551691 3.540611143697628 0 0 0
1375 1 32.95900701453085 12.763110108642 5.311248733567799 0 0 0
1231 1 29.51407336593843 12.69605304534167 5.4731757518962905 0 0 0
1376 1 35.01858208305927 10.864824017762272 5.300527344580232 0 0 0
1372 1 35.20986906917302 10.824955467508335 1.8181990352121196 0 0 0
1374 1 34.866935151413514 12.837581191241357 3.537666159671168 0 0 0
1396 1 34.82462756811692 14.504633950718388 1.9864110543049338 0 0 0
1503 2 37.084143977443695 14.63714089447428 0.6028472955419556 0 0 0
1504 2 37.78804327230668 12.048840811454129 1.5529782534399552 0 0 0
1505 2 37.19431733931891 12.147523727432452 4.537574799774766 0 0 0
1506 2 37.451196961293626 14.597514231208624 3.265536151935151 0 0 0
1398 1 34.95061004131893 16.26147711883546 3.6258178712013165 0 0 0
1370 1 35.14852428670113 12.70336035718615 0.2732681472182019 0 0 0
1400 1 35.00993382205228 14.666490010867015 5.293541811784386 0 0 0
1603 2 39.92828536268717 14.560895132111684 1.4470839945866159 0 0 0
1604 2 42.31489118808881 12.382111033577235 1.2001929015937243 0 0 0
1605 2 39.98628009361958 12.569704848748108 3.234704283305812 0 0 0
1606 2 42.14715319105713 14.446568250958718 3.1407530225014515 0 0 0
1607 2 39.94196887742015 14.93674363315386 5.126239550702025 0 0 0
1608 2 41.980577906286015 12.646170562039021 5.466560017390024 0 0 0
1703 2 44.494773821197555 14.499605170070941 1.3997568351958387 0 0 0
1705 2 44.06061383399277 12.482073765646955 3.4037594207492825 0 0 0
1704 2 46.27918361895465 12.34209004858878 1.5792828972504807 0 0 0
1706 2 46.378924641577235 14.58629400012224 3.4943717947382846 0 0 0
1803 2 48.53075313718869 14.318869065823437 1.6712491302857544 0 0 0
1805 2 48.47338364414194 12.45223612411636 3.543962018386314 0 0 0
1707 2 44.115582374075316 14.696063540715604 5.256253557444364 0 0 0
1804 2 50.37646828849943 12.153340759053203 1.4672732233229215 0 0 0
1806 2 50.476466361204125 14.594506191983156 3.711372801979242 0 0 0
1903 2 52.4244967385715 14.414239505227883 1.6889280546138565 0 0 0
1905 2 52.132119832749005 12.414479571461051 3.7854674797125014 0 0 0
1904 2 54.20867919165847 12.327942915060413 1.9181522430286533 0 0 0
1906 2 54.29798427410032 14.300796441519982 3.8230933324863825 0 0 0
2003 2 55.78197707288579 14.450698084367637 1.5345672329256146 0 0 0
2004 2 57.70206635351391 12.468093614744333 1.5859331045827205 0 0 0
2005 2 56.17073522886491 12.23718510097657 3.9464185647859185 0 0 0
2006 2 57.65760507193714 14.63944620027667 3.678643052492497 0 0 0
2103 2 59.6335913914531 14.653626245217383 1.328155786144131 0 0 0
2104 2 61.46519327182388 12.318695304615556 1.4430984063624415 0 0 0
2105 2 59.54383982673107 12.665689783893518 3.5586361497077577 0 0 0
2106 2 61.49553164996952 14.464210534795003 3.6193012146365193 0 0 0
2203 2 63.49854184852811 14.42176323479533 1.6738388615603745 0 0 0
2205 2 63.49707172809171 12.53975303453283 3.8700141978085916 0 0 0
2204 2 65.52993559872942 12.568559032073393 1.7536559832542848 0 0 0
2206 2 65.42637319299703 14.56636775283309 3.8094662960545684 0 0 0
2303 2 67.31002334444838 14.761206923339127 1.7090636184645485 0 0 0
2305 2 67.38417302491762 12.59946384332296 3.90325346521904 0 0 0
2304 2 69.10573454514561 12.477603302535625 1.557161856132006 0 0 0
2306 2 69.23584533636593 14.796972711289229 4.027354858712826 0 0 0
2403 2 71.09582861253593 15.021073982022584 1.6975425118589953 0 0 0
2404 2 72.7328730788748 13.015599027038773 1.5463358787874926 0 0 0
2405 2 70.98466743719761 12.681993835936542 3.7420281501430877 0 0 0
2406 2 73.01441171685194 14.707201467824591 3.8490480180964255 0 0 0
99 1 -0.47187874512101674 16.290574108808222 2.0676414627199033 0 0 0
102 1 1.487031679116841 16.293341156656837 3.5631347840079988 0 0 0
123 1 -0.11937093887448728 20.009962720667588 1.7918645864478577 0 0 0
124 1 1.6032370457907847 18.22339697988257 1.6789164021241128 0 0 0
125 1 -0.1688153540344756 18.333001658529444 3.4953753092850803 0 0 0
126 1 1.7255780998161379 20.144658298577934 3.517925556995833 0 0 0
243 1 3.428788549790295 16.424928743906904 1.8462689650234743 0 0 0
267 1 3.567269271521233 20.072212386469527 1.7620350425992186 0 0 0
269 1 3.343135449686821 18.215176210128625 3.5671264993603256 0 0 0
98 1 1.5097988147750503 16.430256119565506 0.018219364819173894 0 0 0
121 1 -0.2507497178029466 18.112547161406226 21.56604317557327 0 0 -1
122 1 1.5957111494073881 19.993213906036388 21.61883445767029 0 0 -1
103 1 -0.3171667019852374 16.36075960438124 5.398412034035838 0 0 0
271 1 3.464688691650407 19.9338119219355 5.393599470441557 0 0 0
293 1 7.306721018458861 0.10073615200282049 3.6038788505412525 0 0 0
246 1 5.281820995498607 16.38286434895074 3.727875004261591 0 0 0
390 1 9.04137936901905 16.42243977763808 3.653771052908574 0 0 0
387 1 7.323084472878273 16.434030937128576 1.7446130808074893 0 0 0
268 1 5.344050776867265 18.173397526287573 1.8736604301643573 0 0 0
270 1 5.295619799532208 20.092879214920796 3.6035302923913917 0 0 0
411 1 7.1654759073311585 20.00151998758097 1.643574866433698 0 0 0
412 1 8.978265147815291 18.221583296997608 1.8413679549274249 0 0 0
413 1 7.214245789484304 18.15924404269526 3.5574111655483422 0 0 0
414 1 9.175865900787894 20.06582988765272 3.6565479018190756 0 0 0
152 1 5.307697614336173 0.20059251508709153 5.419958801876735 0 0 0
272 1 5.4347404235172725 18.264229956887238 5.351561690155173 0 0 0