# LAMMPS Description

         400  atoms
         2  atom types


0.0      15.399999999999999  xlo xhi
0.0      20.45  ylo yhi
0.0      20.45  zlo zhi

Masses

             1   63.55
            2   107.87

Atoms  # atomic

          1    1       0.0       0.0       0.0
         2    1       1.805       1.805       0.0
         3    1       0.0       1.805       1.805
         4    1       1.805       0.0       1.805
         5    1       0.0       0.0       3.61
         6    1       1.805       1.805       3.61
         7    1       0.0       1.805       5.415
         8    1       1.805       0.0       5.415
         9    1       0.0       0.0       7.22
         10    1       1.805       1.805       7.22
         11    1       0.0       1.805       9.025
         12    1       1.805       0.0       9.025
         13    1       0.0       0.0       10.83
         14    1       1.805       1.805       10.83
         15    1       0.0       1.805       12.635
         16    1       1.805       0.0       12.635
         17    1       0.0       0.0       14.44
         18    1       1.805       1.805       14.44
         19    1       0.0       1.805       16.245
         20    1       1.805       0.0       16.245
         21    1       0.0       3.61       0.0
         22    1       1.805       5.415       0.0
         23    1       0.0       5.415       1.805
         24    1       1.805       3.61       1.805
         25    1       0.0       3.61       3.61
         26    1       1.805       5.415       3.61
         27    1       0.0       5.415       5.415
         28    1       1.805       3.61       5.415
         29    1       0.0       3.61       7.22
         30    1       1.805       5.415       7.22
         31    1       0.0       5.415       9.025
         32    1       1.805       3.61       9.025
         33    1       0.0       3.61       10.83
         34    1       1.805       5.415       10.83
         35    1       0.0       5.415       12.635
         36    1       1.805       3.61       12.635
         37    1       0.0       3.61       14.44
         38    1       1.805       5.415       14.44
         39    1       0.0       5.415       16.245
         40    1       1.805       3.61       16.245
         41    1       0.0       7.22       0.0
         42    1       1.805       9.025       0.0
         43    1       0.0       9.025       1.805
         44    1       1.805       7.22       1.805
         45    1       0.0       7.22       3.61
         46    1       1.805       9.025       3.61
         47    1       0.0       9.025       5.415
         48    1       1.805       7.22       5.415
         49    1       0.0       7.22       7.22
         50    1       1.805       9.025       7.22
         51    1       0.0       9.025       9.025
         52    1       1.805       7.22       9.025
         53    1       0.0       7.22       10.83
         54    1       1.805       9.025       10.83
         55    1       0.0       9.025       12.635
         56    1       1.805       7.22       12.635
         57    1       0.0       7.22       14.44
         58    1       1.805       9.025       14.44
         59    1       0.0       9.025       16.245
         60    1       1.805       7.22       16.245
         61    1       0.0       10.83       0.0
         62    1       1.805       12.635       0.0
         63    1       0.0       12.635       1.805
         64    1       1.805       10.83       1.805
         65    1       0.0       10.83       3.61
         66    1       1.805       12.635       3.61
         67    1       0.0       12.635       5.415
         68    1       1.805       10.83       5.415
         69    1       0.0       10.83       7.22
         70    1       1.805       12.635       7.22
         71    1       0.0       12.635       9.025
         72    1       1.805       10.83       9.025
         73    1       0.0       10.83       10.83
         74    1       1.805       12.635       10.83
         75    1       0.0       12.635       12.635
         76    1       1.805       10.83       12.635
         77    1       0.0       10.83       14.44
         78    1       1.805       12.635       14.44
         79    1       0.0       12.635       16.245
         80    1       1.805       10.83       16.245
         81    1       0.0       14.44       0.0
         82    1       1.805       16.245       0.0
         83    1       0.0       16.245       1.805
         84    1       1.805       14.44       1.805
         85    1       0.0       14.44       3.61
         86    1       1.805       16.245       3.61
         87    1       0.0       16.245       5.415
         88    1       1.805       14.44       5.415
         89    1       0.0       14.44       7.22
         90    1       1.805       16.245       7.22
         91    1       0.0       16.245       9.025
         92    1       1.805       14.44       9.025
         93    1       0.0       14.44       10.83
         94    1       1.805       16.245       10.83
         95    1       0.0       16.245       12.635
         96    1       1.805       14.44       12.635
         97    1       0.0       14.44       14.44
         98    1       1.805       16.245       14.44
         99    1       0.0       16.245       16.245
         100    1       1.805       14.44       16.245
         101    1       3.61       0.0       0.0
         102    1       5.415       1.805       0.0
         103    1       3.61       1.805       1.805
         104    1       5.415       0.0       1.805
         105    1       3.61       0.0       3.61
         106    1       5.415       1.805       3.61
         107    1       3.61       1.805       5.415
         108    1       5.415       0.0       5.415
         109    1       3.61       0.0       7.22
         110    1       5.415       1.805       7.22
         111    1       3.61       1.805       9.025
         112    1       5.415       0.0       9.025
         113    1       3.61       0.0       10.83
         114    1       5.415       1.805       10.83
         115    1       3.61       1.805       12.635
         116    1       5.415       0.0       12.635
         117    1       3.61       0.0       14.44
         118    1       5.415       1.805       14.44
         119    1       3.61       1.805       16.245
         120    1       5.415       0.0       16.245
         121    1       3.61       3.61       0.0
         122    1       5.415       5.415       0.0
         123    1       3.61       5.415       1.805
         124    1       5.415       3.61       1.805
         125    1       3.61       3.61       3.61
         126    1       5.415       5.415       3.61
         127    1       3.61       5.415       5.415
         128    1       5.415       3.61       5.415
         129    1       3.61       3.61       7.22
         130    1       5.415       5.415       7.22
         131    1       3.61       5.415       9.025
         132    1       5.415       3.61       9.025
         133    1       3.61       3.61       10.83
         134    1       5.415       5.415       10.83
         135    1       3.61       5.415       12.635
         136    1       5.415       3.61       12.635
         137    1       3.61       3.61       14.44
         138    1       5.415       5.415       14.44
         139    1       3.61       5.415       16.245
         140    1       5.415       3.61       16.245
         141    1       3.61       7.22       0.0
         142    1       5.415       9.025       0.0
         143    1       3.61       9.025       1.805
         144    1       5.415       7.22       1.805
         145    1       3.61       7.22       3.61
         146    1       5.415       9.025       3.61
         147    1       3.61       9.025       5.415
         148    1       5.415       7.22       5.415
         149    1       3.61       7.22       7.22
         150    1       5.415       9.025       7.22
         151    1       3.61       9.025       9.025
         152    1       5.415       7.22       9.025
         153    1       3.61       7.22       10.83
         154    1       5.415       9.025       10.83
         155    1       3.61       9.025       12.635
         156    1       5.415       7.22       12.635
         157    1       3.61       7.22       14.44
         158    1       5.415       9.025       14.44
         159    1       3.61       9.025       16.245
         160    1       5.415       7.22       16.245
         161    1       3.61       10.83       0.0
         162    1       5.415       12.635       0.0
         163    1       3.61       12.635       1.805
         164    1       5.415       10.83       1.805
         165    1       3.61       10.83       3.61
         166    1       5.415       12.635       3.61
         167    1       3.61       12.635       5.415
         168    1       5.415       10.83       5.415
         169    1       3.61       10.83       7.22
         170    1       5.415       12.635       7.22
         171    1       3.61       12.635       9.025
         172    1       5.415       10.83       9.025
         173    1       3.61       10.83       10.83
         174    1       5.415       12.635       10.83
         175    1       3.61       12.635       12.635
         176    1       5.415       10.83       12.635
         177    1       3.61       10.83       14.44
         178    1       5.415       12.635       14.44
         179    1       3.61       12.635       16.245
         180    1       5.415       10.83       16.245
         181    1       3.61       14.44       0.0
         182    1       5.415       16.245       0.0
         183    1       3.61       16.245       1.805
         184    1       5.415       14.44       1.805
         185    1       3.61       14.44       3.61
         186    1       5.415       16.245       3.61
         187    1       3.61       16.245       5.415
         188    1       5.415       14.44       5.415
         189    1       3.61       14.44       7.22
         190    1       5.415       16.245       7.22
         191    1       3.61       16.245       9.025
         192    1       5.415       14.44       9.025
         193    1       3.61       14.44       10.83
         194    1       5.415       16.245       10.83
         195    1       3.61       16.245       12.635
         196    1       5.415       14.44       12.635
         197    1       3.61       14.44       14.44
         198    1       5.415       16.245       14.44
         199    1       3.61       16.245       16.245
         200    1       5.415       14.44       16.245
          201    2       7.220000000000001       0.0       0.0
         202    2       9.265       2.045       0.0
         203    2       7.220000000000001       2.045       2.045
         204    2       9.265       0.0       2.045
         205    2       7.220000000000001       0.0       4.09
         206    2       9.265       2.045       4.09
         207    2       7.220000000000001       2.045       6.135
         208    2       9.265       0.0       6.135
         209    2       7.220000000000001       0.0       8.18
         210    2       9.265       2.045       8.18
         211    2       7.220000000000001       2.045       10.225
         212    2       9.265       0.0       10.225
         213    2       7.220000000000001       0.0       12.27
         214    2       9.265       2.045       12.27
         215    2       7.220000000000001       2.045       14.315
         216    2       9.265       0.0       14.315
         217    2       7.220000000000001       0.0       16.36
         218    2       9.265       2.045       16.36
         219    2       7.220000000000001       2.045       18.405
         220    2       9.265       0.0       18.405
         221    2       7.220000000000001       4.09       0.0
         222    2       9.265       6.135       0.0
         223    2       7.220000000000001       6.135       2.045
         224    2       9.265       4.09       2.045
         225    2       7.220000000000001       4.09       4.09
         226    2       9.265       6.135       4.09
         227    2       7.220000000000001       6.135       6.135
         228    2       9.265       4.09       6.135
         229    2       7.220000000000001       4.09       8.18
         230    2       9.265       6.135       8.18
         231    2       7.220000000000001       6.135       10.225
         232    2       9.265       4.09       10.225
         233    2       7.220000000000001       4.09       12.27
         234    2       9.265       6.135       12.27
         235    2       7.220000000000001       6.135       14.315
         236    2       9.265       4.09       14.315
         237    2       7.220000000000001       4.09       16.36
         238    2       9.265       6.135       16.36
         239    2       7.220000000000001       6.135       18.405
         240    2       9.265       4.09       18.405
         241    2       7.220000000000001       8.18       0.0
         242    2       9.265       10.225       0.0
         243    2       7.220000000000001       10.225       2.045
         244    2       9.265       8.18       2.045
         245    2       7.220000000000001       8.18       4.09
         246    2       9.265       10.225       4.09
         247    2       7.220000000000001       10.225       6.135
         248    2       9.265       8.18       6.135
         249    2       7.220000000000001       8.18       8.18
         250    2       9.265       10.225       8.18
         251    2       7.220000000000001       10.225       10.225
         252    2       9.265       8.18       10.225
         253    2       7.220000000000001       8.18       12.27
         254    2       9.265       10.225       12.27
         255    2       7.220000000000001       10.225       14.315
         256    2       9.265       8.18       14.315
         257    2       7.220000000000001       8.18       16.36
         258    2       9.265       10.225       16.36
         259    2       7.220000000000001       10.225       18.405
         260    2       9.265       8.18       18.405
         261    2       7.220000000000001       12.27       0.0
         262    2       9.265       14.315       0.0
         263    2       7.220000000000001       14.315       2.045
         264    2       9.265       12.27       2.045
         265    2       7.220000000000001       12.27       4.09
         266    2       9.265       14.315       4.09
         267    2       7.220000000000001       14.315       6.135
         268    2       9.265       12.27       6.135
         269    2       7.220000000000001       12.27       8.18
         270    2       9.265       14.315       8.18
         271    2       7.220000000000001       14.315       10.225
         272    2       9.265       12.27       10.225
         273    2       7.220000000000001       12.27       12.27
         274    2       9.265       14.315       12.27
         275    2       7.220000000000001       14.315       14.315
         276    2       9.265       12.27       14.315
         277    2       7.220000000000001       12.27       16.36
         278    2       9.265       14.315       16.36
         279    2       7.220000000000001       14.315       18.405
         280    2       9.265       12.27       18.405
         281    2       7.220000000000001       16.36       0.0
         282    2       9.265       18.405       0.0
         283    2       7.220000000000001       18.405       2.045
         284    2       9.265       16.36       2.045
         285    2       7.220000000000001       16.36       4.09
         286    2       9.265       18.405       4.09
         287    2       7.220000000000001       18.405       6.135
         288    2       9.265       16.36       6.135
         289    2       7.220000000000001       16.36       8.18
         290    2       9.265       18.405       8.18
         291    2       7.220000000000001       18.405       10.225
         292    2       9.265       16.36       10.225
         293    2       7.220000000000001       16.36       12.27
         294    2       9.265       18.405       12.27
         295    2       7.220000000000001       18.405       14.315
         296    2       9.265       16.36       14.315
         297    2       7.220000000000001       16.36       16.36
         298    2       9.265       18.405       16.36
         299    2       7.220000000000001       18.405       18.405
         300    2       9.265       16.36       18.405
         301    2       11.309999999999999       0.0       0.0
         302    2       13.355       2.045       0.0
         303    2       11.309999999999999       2.045       2.045
         304    2       13.355       0.0       2.045
         305    2       11.309999999999999       0.0       4.09
         306    2       13.355       2.045       4.09
         307    2       11.309999999999999       2.045       6.135
         308    2       13.355       0.0       6.135
         309    2       11.309999999999999       0.0       8.18
         310    2       13.355       2.045       8.18
         311    2       11.309999999999999       2.045       10.225
         312    2       13.355       0.0       10.225
         313    2       11.309999999999999       0.0       12.27
         314    2       13.355       2.045       12.27
         315    2       11.309999999999999       2.045       14.315
         316    2       13.355       0.0       14.315
         317    2       11.309999999999999       0.0       16.36
         318    2       13.355       2.045       16.36
         319    2       11.309999999999999       2.045       18.405
         320    2       13.355       0.0       18.405
         321    2       11.309999999999999       4.09       0.0
         322    2       13.355       6.135       0.0
         323    2       11.309999999999999       6.135       2.045
         324    2       13.355       4.09       2.045
         325    2       11.309999999999999       4.09       4.09
         326    2       13.355       6.135       4.09
         327    2       11.309999999999999       6.135       6.135
         328    2       13.355       4.09       6.135
         329    2       11.309999999999999       4.09       8.18
         330    2       13.355       6.135       8.18
         331    2       11.309999999999999       6.135       10.225
         332    2       13.355       4.09       10.225
         333    2       11.309999999999999       4.09       12.27
         334    2       13.355       6.135       12.27
         335    2       11.309999999999999       6.135       14.315
         336    2       13.355       4.09       14.315
         337    2       11.309999999999999       4.09       16.36
         338    2       13.355       6.135       16.36
         339    2       11.309999999999999       6.135       18.405
         340    2       13.355       4.09       18.405
         341    2       11.309999999999999       8.18       0.0
         342    2       13.355       10.225       0.0
         343    2       11.309999999999999       10.225       2.045
         344    2       13.355       8.18       2.045
         345    2       11.309999999999999       8.18       4.09
         346    2       13.355       10.225       4.09
         347    2       11.309999999999999       10.225       6.135
         348    2       13.355       8.18       6.135
         349    2       11.309999999999999       8.18       8.18
         350    2       13.355       10.225       8.18
         351    2       11.309999999999999       10.225       10.225
         352    2       13.355       8.18       10.225
         353    2       11.309999999999999       8.18       12.27
         354    2       13.355       10.225       12.27
         355    2       11.309999999999999       10.225       14.315
         356    2       13.355       8.18       14.315
         357    2       11.309999999999999       8.18       16.36
         358    2       13.355       10.225       16.36
         359    2       11.309999999999999       10.225       18.405
         360    2       13.355       8.18       18.405
         361    2       11.309999999999999       12.27       0.0
         362    2       13.355       14.315       0.0
         363    2       11.309999999999999       14.315       2.045
         364    2       13.355       12.27       2.045
         365    2       11.309999999999999       12.27       4.09
         366    2       13.355       14.315       4.09
         367    2       11.309999999999999       14.315       6.135
         368    2       13.355       12.27       6.135
         369    2       11.309999999999999       12.27       8.18
         370    2       13.355       14.315       8.18
         371    2       11.309999999999999       14.315       10.225
         372    2       13.355       12.27       10.225
         373    2       11.309999999999999       12.27       12.27
         374    2       13.355       14.315       12.27
         375    2       11.309999999999999       14.315       14.315
         376    2       13.355       12.27       14.315
         377    2       11.309999999999999       12.27       16.36
         378    2       13.355       14.315       16.36
         379    2       11.309999999999999       14.315       18.405
         380    2       13.355       12.27       18.405
         381    2       11.309999999999999       16.36       0.0
         382    2       13.355       18.405       0.0
         383    2       11.309999999999999       18.405       2.045
         384    2       13.355       16.36       2.045
         385    2       11.309999999999999       16.36       4.09
         386    2       13.355       18.405       4.09
         387    2       11.309999999999999       18.405       6.135
         388    2       13.355       16.36       6.135
         389    2       11.309999999999999       16.36       8.18
         390    2       13.355       18.405       8.18
         391    2       11.309999999999999       18.405       10.225
         392    2       13.355       16.36       10.225
         393    2       11.309999999999999       16.36       12.27
         394    2       13.355       18.405       12.27
         395    2       11.309999999999999       18.405       14.315
         396    2       13.355       16.36       14.315
         397    2       11.309999999999999       16.36       16.36
         398    2       13.355       18.405       16.36
         399    2       11.309999999999999       18.405       18.405
         400    2       13.355       16.36       18.405
