LAMMPS data file via write_data, version 17 Apr 2024, timestep = 10000, units = metal

1280 atoms
1 atom types

-1.7549620138073627 72.22416402186991 xlo xhi
0 14.44 ylo yhi
0 14.44 zlo zhi

Masses

1 63.546

Atoms # atomic

3 1 -1.5602750333517759 1.7613631321983434 1.8063539379343196 0 0 0
6 1 0.3840567335303562 1.8360287017261163 3.4929229050148876 0 0 0
20 1 0.21112577482316183 3.63895714434282 1.8435452401274277 0 0 0
21 1 -1.5884202065257742 3.6043373546448274 3.4750281510733267 0 0 0
5 1 -1.4589893487045578 0.04735235310330976 3.558413502607463 0 0 0
67 1 2.1300646182078284 1.8872405806045767 1.6387483041771342 0 0 0
85 1 2.360264919196342 3.4936873125144516 3.5440866146948 0 0 0
65 1 2.2476793006690383 0.004654823765333189 0.0053547564507289615 0 0 0
70 1 4.234654223851041 1.7770868954463868 3.6708967424101635 0 0 0
84 1 4.192828217194236 3.6559258053199364 1.5983981020407985 0 0 0
131 1 5.935963317573273 1.6959910687982507 1.673803469160647 0 0 0
68 1 3.9531135711546184 0.1427743169647395 1.8933255411710423 0 0 0
69 1 2.1919554613032974 0.07151936064611178 3.592222342113647 0 0 0
149 1 6.1128091433058085 3.4861343942178418 3.504860122325694 0 0 0
134 1 7.943628137390071 1.7616771845788985 3.4862659619469736 0 0 0
148 1 7.723887668769728 3.576951830605582 1.5552357343203829 0 0 0
195 1 9.652302490324935 1.7759205044819757 1.6771746186212284 0 0 0
213 1 9.71538090362087 3.5364509338593053 3.5675162466465196 0 0 0
130 1 7.920813741983663 1.687838535259809 0.0005937404447439428 0 0 0
132 1 7.838602306308521 0.020703233891422743 1.8332316942891873 0 0 0
198 1 11.498873664435 1.788567086476968 3.596256729455545 0 0 0
212 1 11.406140244210956 3.5351500426521545 1.731730090169026 0 0 0
259 1 13.39234650960658 1.6607778656429466 1.7284627977169453 0 0 0
277 1 13.425967179514402 3.452377595330985 3.602499432868629 0 0 0
196 1 11.421541670311187 0.029441757114012545 1.8151967421270092 0 0 0
273 1 13.395410833332546 3.5537061155991387 0.10577316175988512 0 0 0
262 1 15.173939571172285 1.6792835444883922 3.668699629706229 0 0 0
276 1 15.228202135826892 3.5852899837045022 1.8497059723149893 0 0 0
323 1 17.02444361749001 1.7547194582513561 1.7996184267592803 0 0 0
341 1 17.00843205708683 3.412470152444716 3.6912709320732855 0 0 0
337 1 17.18537017228159 3.6056047157151583 0.1212133152906788 0 0 0
326 1 19.082622151977517 1.5674604194692503 3.6449851896227092 0 0 0
340 1 19.06315907600543 3.589459477376413 1.972755787590801 0 0 0
387 1 20.84306718210565 1.6760075803890602 1.7074692686464432 0 0 0
405 1 21.022242146270578 3.511026504051471 3.4932671027371804 0 0 0
401 1 20.733503207390875 3.688404974583803 0.023730363261557412 0 0 0
322 1 18.934293655927714 1.7442336469877213 0.15947320886042568 0 0 0
404 1 22.71554249568802 3.500002972806529 1.7691229435347466 0 0 0
390 1 22.736461522176203 1.7040194886633844 3.587392947361459 0 0 0
451 1 24.55026633147232 1.678267392332162 1.6587161008303037 0 0 0
469 1 24.74616210067156 3.4755790852024067 3.704514956456013 0 0 0
386 1 22.630336662349734 1.7737321221453148 0.08813547053104132 0 0 0
465 1 24.690461579596647 3.5647251446497354 0.04482398465435568 0 0 0
454 1 26.689343883262257 1.83769554198041 3.4973336938744333 0 0 0
468 1 26.644540546287896 3.4482039554222794 1.6976467281506118 0 0 0
450 1 26.540506942058393 1.7050300821788733 0.019249195063343667 0 0 0
515 1 28.587943962050307 2.0409139614696237 1.7450537089510054 0 0 0
533 1 28.571893407233002 3.5578020303467253 3.6421231900037854 0 0 0
518 1 30.44187615674063 1.7733010474658053 3.5482519988013355 0 0 0
532 1 30.527801270115724 3.5982146264045283 1.7875362071748246 0 0 0
579 1 32.296245350869114 1.881818836934517 1.6913915037225062 0 0 0
597 1 32.37564144125992 3.629867797448774 3.6838838637273295 0 0 0
516 1 30.410358880865896 0.12885728100410496 1.8331387082631823 0 0 0
582 1 34.319141994362745 1.8668975110726918 3.5436053142749353 0 0 0
596 1 34.30991053163368 3.749352535251045 1.805970880042185 0 0 0
578 1 34.17620318724894 1.9831100911666186 0.02076735329965837 0 0 0
643 1 36.186497398628134 1.8590580390547937 1.9108530124922216 0 0 0
661 1 36.01071768756646 3.726852836584278 3.8016203818963286 0 0 0
580 1 34.40085978915813 0.044857331299442776 1.8283091015236654 0 0 0
641 1 36.21810083986554 0.09710762609304255 0.13786507753932573 0 0 0
646 1 37.97749067195285 1.8206634266959052 3.7184694166850956 0 0 0
660 1 38.03880562915744 3.5835434214368513 1.9364017662375919 0 0 0
707 1 40.09296964231867 1.8232707156082009 1.8468658928029993 0 0 0
725 1 39.94185049718245 3.703251242766312 3.6531293530058764 0 0 0
709 1 39.88415698952486 0.06082483832706121 3.672570787261237 0 0 0
644 1 38.139839440490974 0.08050007937111926 1.9336925852576685 0 0 0
705 1 40.10782839042502 0.14488338914648138 0.07954029884485801 0 0 0
710 1 41.91461703791212 1.7884704226646457 3.624493989890076 0 0 0
724 1 41.99693349271024 3.584878250483437 1.8842009949473923 0 0 0
771 1 43.92356524187184 1.7189172857352997 1.8766580657982004 0 0 0
789 1 43.8146512962399 3.5855067597099284 3.685609323112874 0 0 0
773 1 43.85566508432178 0.07284203967096942 3.5425268908448952 0 0 0
785 1 43.70923845189187 3.7666119246067735 0.23746282030855018 0 0 0
708 1 42.04527284992388 0.07716838070238118 1.6931394272375895 0 0 0
706 1 41.95627668883818 1.8876432279082647 0.03491800460110496 0 0 0
774 1 45.699182342364146 1.785054109816146 3.6697063483719816 0 0 0
788 1 45.75625358269277 3.6765990292885773 1.9514866186331583 0 0 0
835 1 47.519205898194066 1.979962616572259 1.9315076008680787 0 0 0
853 1 47.51774495582788 3.6869346196788437 3.69614233561053 0 0 0
849 1 47.632084833701526 3.683105868297936 0.058315550114526014 0 0 0
770 1 45.601555482701734 1.9649012827079368 0.08724771549135224 0 0 0
772 1 45.827438883286725 0.06385345475003154 1.9404274451998609 0 0 0
837 1 47.65585447702079 0.016767820038808636 3.702952127940357 0 0 0
833 1 47.47734986977344 0.10445033237461454 0.04056074551807241 0 0 0
838 1 49.42612381403493 1.9629208300926997 3.6215537430537186 0 0 0
852 1 49.40393849692282 3.6435917377060805 1.8348750404575338 0 0 0
899 1 51.278201475016814 1.8279900835287697 1.904835685874539 0 0 0
917 1 51.41074229689231 3.601615753702033 3.6405176696597734 0 0 0
836 1 49.41901315661953 0.11718781207729062 1.797981132297408 0 0 0
834 1 49.489646503492516 1.9289114406543628 0.04898011202293517 0 0 0
897 1 51.166080602139225 0.08541604106214348 0.04097082340251411 0 0 0
913 1 51.399014416571084 3.6671273444221293 0.01199883583306386 0 0 0
902 1 53.35831647742273 1.7648093383394994 3.5302918012586435 0 0 0
916 1 53.18567311520332 3.847596000014513 1.9622154416621183 0 0 0
963 1 55.13056132584674 1.766939805958086 1.7614235541935204 0 0 0
981 1 55.34381825264114 3.606587330912127 3.529170570977646 0 0 0
898 1 53.30362334064865 1.9657373046157756 0.15235093175856915 0 0 0
977 1 55.11296491189424 3.756557095810071 0.11627759099760132 0 0 0
900 1 53.06652994652336 0.08475172084530695 1.7907680072375287 0 0 0
966 1 57.15087534190662 1.9230508230763292 3.635310183924034 0 0 0
980 1 57.05709547694463 3.6575364989547574 1.6780130862343452 0 0 0
1027 1 58.89956529671303 1.927728741100613 1.8149001798229494 0 0 0
1045 1 58.936697709355016 3.8590809023605877 3.5728145208259954 0 0 0
1025 1 59.00146658664671 0.06068750966477928 0.2515461589551139 0 0 0
962 1 57.09803716326822 1.7970484593354292 0.03983612823900517 0 0 0
964 1 56.97764355480655 0.05970947376053776 1.9657835745321914 0 0 0
1029 1 58.943867300855864 0.05451201376281137 3.5816706633699367 0 0 0
1030 1 60.84484310188716 1.9658294580842044 3.5860875849082348 0 0 0
1044 1 60.77389842221907 3.7116287811860955 1.7568329194248835 0 0 0
1091 1 62.74852043400403 1.957471118571434 1.854860585155058 0 0 0
1109 1 62.71660195544057 3.7132181011789087 3.6287982896442843 0 0 0
1026 1 60.80595573377744 1.8203719232258604 0.0881303415954252 0 0 0
1089 1 62.615038478229714 0.2393746713298063 0.23710115586310185 0 0 0
1028 1 60.827876605263775 0.12368634289555304 1.8986226740771681 0 0 0
1093 1 62.77918493232594 0.20403435850422025 3.5688003048461328 0 0 0
1094 1 64.45899141954911 1.9815430460777106 3.682554643399785 0 0 0
1108 1 64.64474189711356 3.741747605473426 1.6885942794827016 0 0 0
1155 1 66.41271891735049 2.009269992017252 1.8495629248502996 0 0 0
1173 1 66.45303259076562 3.738027009996397 3.6729684898597275 0 0 0
1158 1 68.2964593925187 1.8529094033476754 3.5818223108994123 0 0 0
1172 1 68.28745986460625 3.7515960584026637 1.8527222502558167 0 0 0
1092 1 64.64855023793422 0.03129792871941899 1.8179031419067713 0 0 0
1169 1 66.48751851685324 3.755642950527061 0.09611737902426083 0 0 0
1157 1 66.43440075394739 0.018600429116145588 3.675643132984528 0 0 0
1156 1 68.30805780431986 0.16938289340931834 1.5871108899257356 0 0 0
1219 1 70.11720571301845 2.070020650615846 1.7588818189671305 0 0 0
1222 1 72.05805323733638 1.9063837159217611 3.5151308227156473 0 0 0
1236 1 71.94278682436581 3.7067193286954527 1.688727215259444 0 0 0
1237 1 70.19740372904084 3.6892497579642587 3.6406239732628527 0 0 0
1220 1 71.80113321415523 0.06080357607813044 1.6883090289111276 0 0 0
19 1 -1.6831172879548655 5.508404846967359 1.6961249765362514 0 0 0
22 1 0.2619825008410169 5.329903796213921 3.4946198962844606 0 0 0
35 1 -1.5791049646164161 9.17382338502138 1.8258851025330036 0 0 0
36 1 0.16548063781717456 7.208681227056732 1.8048974997447764 0 0 0
37 1 -1.6575631523208074 7.072120427124526 3.5023431551338704 0 0 0
38 1 0.3196670775179748 8.849264517963425 3.5485024095512805 0 0 0
101 1 2.0312310732436907 7.16758012422376 3.518016030159968 0 0 0
34 1 0.32748805828820077 9.031844233268957 0.06072411874727823 0 0 0
33 1 -1.551474685953469 7.365964032862102 0.018173560941994703 0 0 0
99 1 2.149667575173369 8.993438282148306 1.7550641290023214 0 0 0
83 1 2.1976180675409185 5.316338133132172 1.8181705720493382 0 0 0
86 1 4.233950276544874 5.320284160139645 3.4683868108129796 0 0 0
100 1 4.07555313076962 7.121863095006829 1.9107220454904998 0 0 0
102 1 4.003021624441379 9.087359456571429 3.5057777628640485 0 0 0
147 1 6.0311590928346535 5.337081439779268 1.8120975384814473 0 0 0
165 1 6.019700584601264 7.23430355796288 3.58143477784803 0 0 0
98 1 4.131404738565484 8.925485036160607 0.15750951550327857 0 0 0
97 1 2.1885283591422384 7.119347771063993 0.053458315034672396 0 0 0
163 1 6.06932360357556 9.05266135232696 1.8278002718719735 0 0 0
150 1 7.845662170470049 5.230092358695088 3.69302336870178 0 0 0
164 1 7.868189723943192 7.066691730365809 1.9098092937100404 0 0 0
166 1 7.940040792530604 8.986602524744255 3.7445874419462153 0 0 0
211 1 9.61690773426398 5.378839768547403 1.7987580485206842 0 0 0
227 1 9.496837357633 8.995849896371766 1.8017708427598351 0 0 0
229 1 9.746142182783585 7.075433828898369 3.627992673511504 0 0 0
225 1 9.507368564226992 7.292579000256842 0.01048968266033797 0 0 0
214 1 11.614884001908042 5.225402217273913 3.679044287187978 0 0 0
228 1 11.445805417919008 7.107023422004897 1.7789313394062205 0 0 0
230 1 11.289868529555351 8.99025528072426 3.547156581822042 0 0 0
275 1 13.378450558717251 5.2444133631900955 1.9242801327872423 0 0 0
291 1 13.208169637746813 8.951356906792677 1.9276384037936045 0 0 0
293 1 13.246456922206717 7.060078543791982 3.6743841467185114 0 0 0
289 1 13.43683759355333 7.137848438571015 0.1760563797505084 0 0 0
226 1 11.442082486634305 8.955247953170488 0.024935972526183178 0 0 0
278 1 15.164967140223137 5.256513463930743 3.671798039356631 0 0 0
292 1 15.1124037431819 7.172275890378049 1.9218314543809032 0 0 0
294 1 15.168482714899175 8.9680888150104 3.7992368118894952 0 0 0
339 1 17.126175986668823 5.399182163437161 1.9549007608901843 0 0 0
355 1 17.187153606895745 8.881804803424114 1.8978575222457383 0 0 0
357 1 17.057295221306017 7.066205477017598 3.6229922542781803 0 0 0
353 1 17.09367917581612 7.213660638434789 0.1289004949775072 0 0 0
290 1 15.220999562204478 9.007658438458161 0.15147464631034102 0 0 0
342 1 19.08154609727962 5.442923595324816 3.6836890123374673 0 0 0
356 1 18.992648813070126 7.283316885397294 1.7559385009409159 0 0 0
358 1 19.06951814142889 9.016056364321386 3.6743738330936404 0 0 0
403 1 20.8123268754672 5.522448666502012 1.9423382957142437 0 0 0
419 1 20.920636461091163 9.067996222588922 1.6022803640290588 0 0 0
421 1 20.936286194206204 7.288417262722959 3.7222249821041555 0 0 0
406 1 22.712776423319426 5.343788753619905 3.580599791601305 0 0 0
422 1 22.824188795641255 8.905917956595603 3.5483957407709417 0 0 0
420 1 22.60946709702252 7.196926771376428 1.772530724102716 0 0 0
467 1 24.6857008636778 5.1974958223466095 1.9387656582062989 0 0 0
483 1 24.77290034658125 8.790945700803434 1.8948949480407065 0 0 0
485 1 24.63836785761393 7.09219918470688 3.695803690726882 0 0 0
481 1 24.610976848998394 7.13426416789586 0.1466916908269022 0 0 0
402 1 22.74895740691707 5.2143983758357155 0.07051956880369674 0 0 0
470 1 26.622576589076683 5.160987607771558 3.7190620070462614 0 0 0
484 1 26.64182415716221 7.237138153790551 1.862571533252093 0 0 0
486 1 26.597746950248865 8.975113922090852 3.623866356938354 0 0 0
531 1 28.33180587104642 5.307769239468235 1.779793012938322 0 0 0
547 1 28.558982965539286 8.893943674171284 1.7432989328254818 0 0 0
549 1 28.576924363173784 7.266094514455475 3.5380673132749516 0 0 0
482 1 26.516907695675926 8.889380026632137 0.12067218125018185 0 0 0
534 1 30.364407849757182 5.304860607203491 3.571531169902355 0 0 0
548 1 30.303487920540192 7.069465859154648 1.7756061236776617 0 0 0
550 1 30.42727319087358 9.029849902120837 3.6163490438167565 0 0 0
595 1 32.31750197398803 5.38773142282589 1.9064600407721282 0 0 0
611 1 32.14289753990649 8.888950707265801 1.6665830518827902 0 0 0
613 1 32.30959706640246 7.241684259588588 3.5662403370803264 0 0 0
598 1 34.23254625362729 5.611762596945728 3.868618234877736 0 0 0
612 1 34.40166329403782 7.130418799765604 1.8752975894432542 0 0 0
614 1 34.1005191567583 8.941502925017634 3.4269275978051055 0 0 0
659 1 36.255587641136756 5.288369581451355 1.9229517106353866 0 0 0
675 1 36.134207414565985 9.007020817671474 1.7538955194660428 0 0 0
677 1 36.2408228507579 7.405606001945366 3.6557690120802797 0 0 0
594 1 34.420888918501404 5.412030592565766 0.023371681863095618 0 0 0
662 1 38.15242418813625 5.416971009414248 3.7499857281248707 0 0 0
676 1 37.93775188281038 7.201277103272789 1.7779190454956861 0 0 0
678 1 38.07788350872494 9.063323941257861 3.5343541279405644 0 0 0
658 1 38.047180263196175 5.35335378118023 0.002699787669336337 0 0 0
723 1 39.926505966413636 5.392029465028911 1.8497999182266094 0 0 0
739 1 40.00609097918078 9.137940361804139 1.771544002248483 0 0 0
741 1 39.852517166190346 7.221463004533571 3.6015547667282295 0 0 0
737 1 39.85937224967584 7.17132347288575 0.11236673720374699 0 0 0
674 1 38.10341614181423 8.91835579966559 0.1024505483482015 0 0 0
726 1 41.76870089437128 5.3766527420718555 3.6849743724706485 0 0 0
740 1 41.71130927327435 7.264610951416697 1.925921970130706 0 0 0
742 1 41.71603786113472 9.07102553974431 3.638592788234329 0 0 0
803 1 43.77848853329319 8.981276319725136 1.8899709706252321 0 0 0
722 1 41.74449677717714 5.377954231102784 0.1782507027849887 0 0 0
787 1 43.778618320630486 5.5895635089011835 2.0495185703414953 0 0 0
805 1 43.62276529061388 7.3484125763280534 3.7885672765372718 0 0 0
790 1 45.798980246051435 5.533607520178524 3.683733525674814 0 0 0
804 1 45.61895245262079 7.2283587620686065 1.8647384765265935 0 0 0
806 1 45.612800601925144 9.105424585528315 3.5020805642689923 0 0 0
867 1 47.48077757586572 9.020746328491022 1.7763207879311995 0 0 0
869 1 47.480208270585244 7.242103881835253 3.7485949293154155 0 0 0
786 1 45.591038348555045 5.294988702287201 0.026824097259036343 0 0 0
851 1 47.4840126783651 5.4564231656756315 1.8175402141055024 0 0 0
854 1 49.51510720616505 5.3463256083291215 3.533896024986093 0 0 0
868 1 49.30895096688428 7.27258191489747 1.8269596486675295 0 0 0
870 1 49.370757925530484 9.026969636036675 3.554638340237906 0 0 0
915 1 51.29603013845272 5.414368956525187 1.7882061464496353 0 0 0
931 1 51.19776167380383 9.203643207699786 1.8425182478827973 0 0 0
933 1 51.2866404997624 7.309514069846343 3.496002942645035 0 0 0
850 1 49.43326954384034 5.4033388204254935 0.022923233227886964 0 0 0
918 1 53.17618688436369 5.537626623458277 3.7982110742569 0 0 0
932 1 53.04137901458304 7.411363629951556 1.8406514321584022 0 0 0
934 1 53.263720385322515 9.249736505259193 3.5674520420316678 0 0 0
979 1 55.08373292195738 5.59445751718148 1.9244071009184516 0 0 0
995 1 55.130206085899374 9.227612633468054 1.758328845479787 0 0 0
997 1 55.17501156722138 7.266304771269092 3.590046224307158 0 0 0
993 1 54.952051280180385 7.3233985011875955 0.11438757982942278 0 0 0
914 1 53.20824117011646 5.397050230098646 0.08044661728440422 0 0 0
930 1 52.941296383328044 9.204495471375528 0.041847500060854914 0 0 0
982 1 57.07956872784063 5.448407680149387 3.542556900069913 0 0 0
996 1 57.1560947972002 7.292046005019113 1.8774050745324988 0 0 0
998 1 57.02748089407605 9.02746012037727 3.5770377603601813 0 0 0
1043 1 58.98009521482211 5.4508252330201294 1.6522609785550086 0 0 0
1059 1 58.90851766116092 9.083758637597063 1.7967906003530314 0 0 0
1061 1 58.85964021817834 7.099314027693155 3.6332245409522312 0 0 0
994 1 57.05252502031739 9.059288225586828 0.06462288661588272 0 0 0
978 1 56.95492972665655 5.630678670702259 0.024191878853581116 0 0 0
1046 1 60.74701234298876 5.517455587771407 3.560615888117236 0 0 0
1060 1 60.76184573638112 7.11227013086606 1.8337067175667452 0 0 0
1062 1 60.69113498719261 8.876510134266104 3.7423622055695644 0 0 0
1107 1 62.57526032051837 5.496621915187046 1.8201745876935926 0 0 0
1123 1 62.51571738605859 9.026490318525767 1.936370196299994 0 0 0
1125 1 62.65961599829764 7.309434429824774 3.6135592292771843 0 0 0
1058 1 60.682601165107236 9.004585077505153 0.13087931355958343 0 0 0
1122 1 64.28859427537846 9.12786640030402 0.0993679342420885 0 0 0
1110 1 64.55088748421059 5.549146496488295 3.720705057209254 0 0 0
1124 1 64.48419685215634 7.358060626678823 1.9092163123345642 0 0 0
1126 1 64.50756370336245 9.185388895495393 3.608632386806413 0 0 0
1171 1 66.2953982417427 5.621971692843386 1.8567517453185267 0 0 0
1187 1 66.39571222607164 9.011896225815898 1.7234653742210069 0 0 0
1189 1 66.41348212704784 7.392713154591679 3.6613371651041176 0 0 0
1188 1 68.2553516127894 7.39473623775513 1.8863885817746384 0 0 0
1174 1 68.24939098909492 5.483890408947288 3.5435309026916775 0 0 0
1170 1 68.31341369138285 5.535941433277134 0.16143468814870876 0 0 0
1185 1 66.43427369458502 7.372376402205322 0.01917893332934311 0 0 0
1190 1 68.39305488472408 9.041562762299794 3.7125293319051704 0 0 0
1235 1 70.26016077695637 5.487208891320382 1.7211361818699635 0 0 0
1238 1 72.08513435173731 5.4936065771870375 3.4110545879504115 0 0 0
1251 1 70.11948312686167 9.086171274811152 1.6928328135215271 0 0 0
1252 1 72.0887535458058 7.231793483170119 1.6277831855929947 0 0 0
1253 1 70.17763605830842 7.165059254237726 3.595927215086802 0 0 0
1254 1 72.01870379773317 8.92143829454296 3.4407232885005077 0 0 0
4 1 0.3472790563452291 14.35667301064887 1.7159030776440665 0 -1 0
51 1 -1.3929529950753892 12.535072613592515 2.03229784798924 0 0 0
52 1 0.2605997256708736 10.810825796739898 1.8188633020361233 0 0 0
53 1 -1.44757909379979 10.57508209907326 3.6690170947872778 0 0 0
54 1 0.24188820378482068 12.531460778775141 3.665092933483929 0 0 0
117 1 2.1285698805761717 10.868673470664703 3.5380970208027303 0 0 0
115 1 2.0821694012697116 12.746791724182687 1.9967060101584044 0 0 0
1 1 -1.5440243976542063 14.300236561869859 0.10466075702691455 0 -1 0
133 1 6.0082523901591225 14.352686447545812 3.4867731107707867 0 -1 0
116 1 4.15091704508849 10.809918981969103 1.8538697575557201 0 0 0
118 1 4.045610550463067 12.659790792484902 3.5459012846737026 0 0 0
179 1 5.759567595861718 12.586935885727815 1.897251554725863 0 0 0
181 1 5.928279823538723 10.92347571143911 3.610632033749392 0 0 0
114 1 4.067173851857401 12.587712884430315 0.03743754108301868 0 0 0
197 1 9.65687996913034 14.327613920781294 3.542369212191422 0 -1 0
180 1 7.723284630449539 10.891093097175977 1.7865014550193974 0 0 0
182 1 7.742773749022457 12.581285810500857 3.654380929746184 0 0 0
243 1 9.68237200901769 12.505829485448581 1.7549497871050121 0 0 0
245 1 9.604546973866162 10.86971453094646 3.475869626482438 0 0 0
178 1 7.712560136761476 12.661947998456908 0.02282764868167751 0 0 0
261 1 13.447360858117191 14.374532139287918 3.549955414290398 0 -1 0
244 1 11.383206365863828 10.771905167839392 1.8407983075619647 0 0 0
246 1 11.490790169291946 12.686118327262871 3.501584363464133 0 0 0
307 1 13.397450192308272 12.516987451097805 1.776093698630509 0 0 0
309 1 13.256207162797887 10.831052983861527 3.7623220082544115 0 0 0
325 1 17.125081857310334 14.338436663095434 3.650666218374396 0 -1 0
260 1 15.226179315113024 14.318040273122016 1.6889737428699412 0 -1 0
308 1 15.034742015663353 10.672373224271475 2.0242003666248602 0 0 0
310 1 15.199610972518341 12.608761688090324 3.5872631994333672 0 0 0
371 1 17.066177661997745 12.501382017987423 1.8790114096950086 0 0 0
373 1 17.113769995564123 10.621726616225937 3.6650373710016217 0 0 0
369 1 17.15903481499621 10.672572736540154 0.04896270030524926 0 0 0
321 1 17.104221656090466 14.264139888295775 0.07130254405651426 0 -1 0
306 1 15.203657129568954 12.420094144835074 0.058155980404941764 0 0 0
324 1 19.094755637879082 14.287308747938763 1.633183099991297 0 -1 0
389 1 20.948831704215706 14.389046384322196 3.5292200170054544 0 -1 0
372 1 18.941411659541792 10.740372216676347 1.8748565359883722 0 0 0
374 1 19.080093131316655 12.635826457566965 3.674052545171217 0 0 0
435 1 21.004431415063987 12.502001043615381 1.88701595540537 0 0 0
437 1 21.031883110511487 10.823589265174105 3.6419168007386657 0 0 0
453 1 24.70945444240666 14.433862950156596 3.4746538626617434 0 -1 0
388 1 22.890393326284407 14.263023367455245 1.8123416457740547 0 -1 0
436 1 22.900360851037114 10.59904105783431 1.8043105405062254 0 0 0
438 1 22.851903812379742 12.416741343012246 3.6188702813233875 0 0 0
499 1 24.72627495326205 12.497105964560243 1.803368668983358 0 0 0
501 1 24.876008661483663 10.63647199075524 3.757199621358869 0 0 0
497 1 24.71828162662492 10.631803794005393 0.02400219577401932 0 0 0
452 1 26.470766853061942 14.25374169978012 1.6130153911014047 0 -1 0
517 1 28.511372849912913 14.426189518231995 3.334188280373732 0 -1 0
500 1 26.505305811956656 10.676374089749016 1.7707479319805788 0 0 0
502 1 26.483039234540133 12.553619091742567 3.6704900307134647 0 0 0
563 1 28.454406779796134 12.542856475873213 1.586993124728219 0 0 0
565 1 28.486950870104835 10.642630990508048 3.460211556915354 0 0 0
564 1 30.388989486817355 10.676163201575417 1.654349837528414 0 0 0
566 1 30.35654624357375 12.53961395874427 3.453900103567404 0 0 0
581 1 32.43627258670226 14.436221165397559 3.472650616318029 0 -1 0
627 1 32.3726735249019 12.670914267396295 1.70291367229437 0 0 0
629 1 32.263656200610654 10.818601931606525 3.5577967657788827 0 0 0
577 1 32.32407336578933 14.426780540387396 0.036024751295408136 0 -1 0
645 1 36.23625536358953 14.273811766529201 3.6883805693281495 0 -1 0
628 1 34.2091513757227 10.740615064753769 1.6768834905239336 0 0 0
630 1 34.15785405884048 12.629867465944622 3.611065810655105 0 0 0
626 1 34.44691424430651 12.67007501339028 0.06191848245304893 0 0 0
691 1 36.32194580665446 12.623298146988676 1.784973039661253 0 0 0
693 1 36.2271741850256 10.874395329201638 3.536763201834121 0 0 0
692 1 38.12407993137186 10.79748145973895 1.7322791462020677 0 0 0
694 1 38.09665488647277 12.614846501556526 3.6812320149506865 0 0 0
755 1 39.96437728819966 12.748819453368228 1.7860099776055705 0 0 0
757 1 40.01225354662404 10.99756193757538 3.614473009342893 0 0 0
753 1 39.9354945744576 10.95623459679253 0.13646589348094462 0 0 0
756 1 41.85838672272287 10.868692844654293 1.8720832286331408 0 0 0
758 1 41.801817533545716 12.848285274529061 3.5109936446276593 0 0 0
819 1 43.732634256330385 12.562830826883797 1.8663923677557221 0 0 0
821 1 43.71808403849413 10.849362695305551 3.627073601804318 0 0 0
754 1 41.80239903839712 12.538610741876628 0.1420490643656465 0 0 0
817 1 43.74462326060571 10.858776796519807 0.07776270518815355 0 0 0
820 1 45.655412655718635 10.81872057622085 1.7355207499011118 0 0 0
822 1 45.75184676757894 12.569608881967255 3.5968930850790093 0 0 0
885 1 47.48543987662357 10.969342954411642 3.471906855939412 0 0 0
818 1 45.6524770330466 12.675257851930457 0.09455458783196849 0 0 0
883 1 47.575994995324436 12.711214858178883 1.6854892594864914 0 0 0
881 1 47.618203316775464 10.732096117866643 0.03693414200601727 0 0 0
901 1 51.363809851592414 14.349118598262137 3.779053089226261 0 -1 0
884 1 49.492384044242925 10.893629489094474 1.8191336487207215 0 0 0
886 1 49.47950974402197 12.690189029281568 3.616179896208858 0 0 0
947 1 51.34534076723891 12.884508331583742 1.8818037996415105 0 0 0
949 1 51.2531158971581 10.942717766289574 3.551946591691877 0 0 0
945 1 51.25050876782712 11.10841402813716 0.05167110866092875 0 0 0
965 1 55.15555124204202 14.34277766650371 3.634311542910727 0 -1 0
948 1 53.07111300167109 10.988183157321638 1.7731624822970302 0 0 0
950 1 53.21873934219777 12.643575894337376 3.6941821480599306 0 0 0
1011 1 55.076080387175395 12.748723571480642 1.7670806327897968 0 0 0
1013 1 55.10468345982041 10.983204239133215 3.649230961978842 0 0 0
1009 1 55.21259471064323 10.974273504211983 0.014689996498365556 0 0 0
1012 1 56.90964148931886 10.82955718325586 1.868968293756434 0 0 0
1014 1 57.05002013467827 12.696788517050775 3.5535213717379333 0 0 0
1075 1 58.88480291981912 12.544507264139169 1.7883587303620483 0 0 0
1077 1 58.959127615965706 10.856887188751413 3.6551494267387694 0 0 0
1073 1 58.75032282281411 10.84600122522074 0.09261643105844207 0 0 0
1010 1 57.108654461410644 12.673003637410208 0.1314353098613732 0 0 0
1076 1 60.79678842492339 10.977319634343749 1.6999087122010468 0 0 0
1078 1 60.74015534787868 12.669269644472175 3.6030560312017705 0 0 0
1139 1 62.646553218905034 12.686201223012258 1.9932986753358222 0 0 0
1141 1 62.49629848921312 10.85771577690229 3.629167525953313 0 0 0
1074 1 60.79361613973547 12.767568247686354 0.11574169998057839 0 0 0
1138 1 64.40065874465527 12.626901286775768 0.11850325884780105 0 0 0
1137 1 62.61036227868699 10.850079081650014 0.18789777018615617 0 0 0
1140 1 64.6000633610897 10.900390869590536 1.843159950171363 0 0 0
1142 1 64.57628284858662 12.700205128487328 3.4736472203039845 0 0 0
1203 1 66.48464626634417 12.64931578625333 1.8675466717619198 0 0 0
1205 1 66.64718444097248 10.840864711584894 3.776456421754189 0 0 0
1206 1 68.22158247403647 12.681638517351896 3.5710863040472196 0 0 0
1204 1 68.28630649338899 10.74432686308522 1.732655249841116 0 0 0
1201 1 66.4081127983628 10.822832484694189 0.02284511938655737 0 0 0
1221 1 70.03563180094673 14.42225476812596 3.407506051618033 0 -1 0
1267 1 70.01073189224623 12.735115552676149 1.611031084021845 0 0 0
1268 1 72.06086763559458 10.920290763839416 1.8403672649812877 0 0 0
1269 1 70.26271890466947 10.818378073184999 3.573549310701516 0 0 0
1270 1 71.84816786174193 12.833113845389942 3.552145052584583 0 0 0
7 1 -1.445456390169811 1.7721544266799025 5.340583253754294 0 0 0
10 1 0.3290991180441806 1.8674348943453651 7.212093677575607 0 0 0
11 1 -1.57721698501036 1.8301039880479228 9.000813905233013 0 0 0
24 1 0.42523149310984726 3.7333435319750556 5.360741646768532 0 0 0
25 1 -1.3361340569772908 3.815656553871664 7.092355475781741 0 0 0
28 1 0.3535397971877645 3.5219434967834187 9.016838298955337 0 0 0
9 1 -1.448562560352526 0.021937621368715673 7.099765285479754 0 0 0
75 1 2.0994449464721963 1.7691674389668421 9.10975512604651 0 0 0
71 1 2.0502180208753282 1.8035969864431676 5.320352328958417 0 0 0
73 1 2.252247289638801 0.15647753736020942 7.228775036737583 0 0 0
89 1 2.3753566550128458 3.489363060914073 7.0779183452357755 0 0 0
74 1 4.214565036660486 1.7779747085438666 7.169346666724857 0 0 0
88 1 4.094578466098282 3.619415045425056 5.294247060331301 0 0 0
92 1 3.956307265113318 3.537446592698819 9.038206788426331 0 0 0
135 1 5.990210669759132 1.7807969944407167 5.352975220202093 0 0 0
139 1 6.018939497915617 1.8438399642517371 9.30255472267832 0 0 0
153 1 5.958942012308818 3.5424101564232546 7.1358140042435485 0 0 0
76 1 4.0441665480336795 0.007140100852420579 9.087953677321698 0 0 0
72 1 4.117499560991627 0.021530225068008 5.3253765030520706 0 0 0
138 1 7.695876173814117 1.7915604962959526 7.340715385657362 0 0 0
152 1 7.819095122120484 3.5176682476641883 5.4413206968296715 0 0 0
156 1 7.766545702958868 3.592276386927114 8.933499456987072 0 0 0
199 1 9.603911826587142 1.6022978389282068 5.549121675886539 0 0 0
203 1 9.619183705566307 1.7758036494577285 9.110250026037944 0 0 0
217 1 9.748950256533432 3.3626640157299756 7.169096051334785 0 0 0
136 1 7.787697081730621 0.07670412496411023 5.369771966341194 0 0 0
202 1 11.438777276978803 1.665820081617973 7.335307842058841 0 0 0
216 1 11.577707443647027 3.4216756964829687 5.391031291811439 0 0 0
220 1 11.437126196526114 3.6114222473043345 9.121081030976143 0 0 0
263 1 13.281378128628184 1.661054791585045 5.492067977939402 0 0 0
267 1 13.459225696664094 1.7538436521757796 9.052917763676128 0 0 0
281 1 13.403560446553616 3.3922582842265623 7.21485511363981 0 0 0
266 1 15.314167924223451 1.7454982929321807 7.411453148127206 0 0 0
280 1 15.143897390584597 3.4908058626851273 5.452713840355015 0 0 0
284 1 15.187509665611989 3.501025073448777 9.185856971961096 0 0 0
327 1 17.267255162042968 1.571152205381621 5.467394320533511 0 0 0
331 1 17.23899563298953 1.6173779781302708 9.063544835547205 0 0 0
345 1 17.41367285204276 3.3539517110718817 7.111522912478081 0 0 0
330 1 19.137383977880315 1.6083610868277989 7.307228571897139 0 0 0
344 1 19.116555518325104 3.488002120417725 5.193893372407846 0 0 0
348 1 18.867121379388713 3.6587796374157833 9.003175802142705 0 0 0