LAMMPS Description

4 atoms
1 atom types

0.0 3.52 xlo xhi
0.0 3.52 ylo yhi
0.0 3.52 zlo zhi

Masses

1 58.69

Atoms # atomic

1 1 0.0 0.0 0.0
2 1 1.76 1.76 0.0
3 1 0.0 1.76 1.76
4 1 1.76 0.0 1.76
