LAMMPS Description

2440 atoms
2 atom types

0.0 77.0 xlo xhi
0.0 21.66 ylo yhi
0.0 21.66 zlo zhi

Masses

1 63.55
2 107.87

Atoms # atomic

<<<<<<< HEAD
1 1 0.00037917442488416927 21.658395084051357 0.00284420911948062
2 1 1.8081733755122966 1.8039717959494346 21.659551265720655
3 1 0.0013018683677065497 1.8074588323303915 1.807007135617175
4 1 1.8048843742484053 0.00033210751722512265 1.801598174793926
5 1 0.001587768750287656 21.659552589170964 3.6131048653915814
6 1 1.8080279154112762 1.8066779128943693 3.610308529197316
7 1 3.7080490406333093e-05 1.8074726498464087 5.412812070455848
8 1 1.8023347214660304 21.657737522477102 5.414638875975435
9 1 0.0008927026296154561 21.65841208590512 7.21702318369327
10 1 1.8044222714855926 1.8030768464733775 7.2228886333767
11 1 0.0005398384124820918 1.804747185814979 9.021485705938396
12 1 1.8028601755411726 21.657598636856253 9.025774262177348
13 1 0.003027988896098603 0.0007461535683052567 10.828670817621441
14 1 1.808040702252033 1.8046405125507972 10.830651267108795
15 1 0.0018874238674688561 1.804281118939574 12.637578245644221
16 1 1.8020948752265833 0.0011733631120011763 12.636861795421726
17 1 0.002786359348577551 0.0006154314698909887 14.437988141435776
18 1 1.8052975923826449 1.8046932770654045 14.436745255477192
19 1 0.001052540868994669 1.8066948165362702 16.24204435847921
20 1 1.8051257182152352 21.658742934458104 16.24783598922724
21 1 0.0030711542600673773 21.659438604408678 18.047921542186245
22 1 1.8053245091588457 1.805113729442075 18.046875553398614
23 1 0.0007572921750219126 1.8082020661421623 19.854572408939845
24 1 1.806257218710196 0.0010085104699906122 19.852081482900793
25 1 5.54500031948766e-05 3.6098717851567863 0.003084944556844951
26 1 1.8039372398041296 5.411859064470614 21.65923571139107
27 1 0.000872065573608881 5.413299718374683 1.8016906692602828
28 1 1.8058510909451724 3.6103375621514067 1.8018744159231965
29 1 0.0028369372331530896 3.608117873481976 3.6104321520128093
30 1 1.8056559223809732 5.415974760297657 3.6066644626622573
31 1 0.0010307571797947784 5.417645123436615 5.412990928027185
32 1 1.8049977101405883 3.609385753364396 5.41151654089666
33 1 0.002132180631828742 3.610516817975162 7.2174111585346745
34 1 1.8076717301206358 5.415592797901484 7.22178475139049
35 1 0.00020182657150773575 5.415097768024357 9.021916199305153
36 1 1.8042268645937432 3.6112895144336483 9.028005607214403
37 1 0.0001038232376843161 3.6132340774090537 10.830638842692418
38 1 1.8073083968874883 5.412593332102618 10.829068516405735
39 1 0.0006880019117675358 5.414723512075137 12.631673866459877
40 1 1.804653693552962 3.6099601361805753 12.638476057043562
41 1 0.001520906462381418 3.607528685102066 14.441629537721072
42 1 1.803084357747937 5.413381979550473 14.437834057162068
43 1 0.000337302700566017 5.4148978859544625 16.248178631721007
44 1 1.8056928645449577 3.6069616668335356 16.24524107395316
45 1 0.0018319171522087 3.607432198973943 18.048657908776796
46 1 1.8040314558083306 5.414687940754061 18.053309604974388
47 1 0.001280067804702969 5.414295383527355 19.852146017126223
48 1 1.8027761718336255 3.607854409171743 19.855774669164923
49 1 0.0010186939341338631 7.218626914400003 21.657276469234816
50 1 1.8033736014878938 9.028025590678926 21.659566975030337
51 1 0.0014113112757107612 9.027618820258814 1.8069719621080824
52 1 1.803705787613717 7.2194916618879015 1.80163465098322
53 1 0.0005529072989218432 7.21697385117938 3.608788908015458
54 1 1.8047700181833413 9.021317128546407 3.6106971095748084
55 1 0.0029684597160980456 9.024781382353142 5.413423396079743
56 1 1.8036382426171214 7.221266295387126 5.412255568451396
57 1 0.0015412012450143004 7.221786871404337 7.222525360486935
58 1 1.805522029722551 9.027376870480566 7.217714981756261
59 1 0.0010959904320776328 9.0249039657806 9.022278972100494
60 1 1.8044972454041748 7.22067438484238 9.021819373683647
61 1 0.0024917576626663916 7.222096830180084 10.828384786114713
62 1 1.806787171561182 9.022105041505206 10.830427448880426
63 1 0.001730098056559607 9.027796767477495 12.634293492480891
64 1 1.805456084608071 7.219851213490501 12.631690882358498
65 1 0.001263148489869994 7.219017056955616 14.437084085262203
66 1 1.8043574345224436 9.025799165799542 14.44299346126115
67 1 0.0022510880660382483 9.024628533664892 16.24202986133935
68 1 1.8082891889458508 7.221061518502508 16.245054831329725
69 1 0.002915203466167539 7.220271264424922 18.050617902161267
70 1 1.8062860556126799 9.024952366400871 18.046927524919553
71 1 0.0005553951588973698 9.02481800473505 19.851598973025368
72 1 1.8076869261573842 7.219744780217264 19.857780249192842
73 1 0.0002754611956146084 10.827630136686759 0.0024304632902252925
74 1 1.8044282189255658 12.631493545642986 0.0008885552016912672
75 1 0.0007582083181350129 12.637707425770145 1.8068466513737345
76 1 1.8075655046985613 10.828067718800307 1.8060818661684241
77 1 0.0012868596080576045 10.829993994698233 3.6070423019444506
78 1 1.8041483511088523 12.634957777669666 3.606640840142566
79 1 0.0029887394493003493 12.633106225572341 5.41598103363978
80 1 1.8080288458042142 10.830630687503662 5.41580745269928
81 1 0.0029601788998772204 10.829964770496604 7.221850535361024
82 1 1.8052961943732937 12.637292086655629 7.222202275904704
83 1 0.002483826690885959 12.63401796748298 9.027106921598447
84 1 1.8070145535960278 10.831934400833617 9.023117050372377
85 1 0.00032619866597415173 10.83054825788027 10.82696387267342
86 1 1.80433205001173 12.634389533266788 10.833574968465115
87 1 0.0005241687809447227 12.6320766462538 12.636228436520556
88 1 1.802072092410571 10.831754710195057 12.634826005354032
89 1 0.002610601100675528 10.828038210674304 14.441363534739127
90 1 1.8054225394097785 12.636856151696012 14.442974115451813
91 1 0.0018509402195000678 12.635554509794998 16.247843526795574
92 1 1.8034296083283605 10.828136373650342 16.242827484393278
93 1 0.001650270683623742 10.829216221042964 18.052717946310658
94 1 1.80823073191959 12.634836046172886 18.051302577957955
95 1 1.2672167118478356e-05 12.63503092966939 19.858639859736414
96 1 1.8025620883284241 10.827402806263308 19.856012972775076
97 1 0.002158362844853268 14.438379641118658 21.657788780696503
98 1 1.8060758606565859 16.246580695390183 21.65724494208332
99 1 0.0023994579616180927 16.24258390824143 1.8064150147103892
100 1 1.80347575901018 14.443032085508866 1.8062035346054344
101 1 0.0032713669731853075 14.439754220036418 3.6091572047677127
102 1 1.8053448205273972 16.242751011680475 3.6122930811121376
103 1 0.0002567445193940368 16.247137684257517 5.417949665718305
104 1 1.8055497406037115 14.440187346957813 5.411465757504142
105 1 0.002962501068396125 14.440699273716755 7.21848104355675
106 1 1.8055601978932456 16.245156429961302 7.223278091703194
107 1 0.0008692506402746544 16.248149677978656 9.026130072454535
108 1 1.8024268927899731 14.43892805050803 9.022520267817445
109 1 0.002960016393433668 14.441564821760112 10.829902475502507
110 1 1.8017168100211747 16.244512696120115 10.829586678931811
111 1 0.0015982924402471485 16.241786094139332 12.635151742869992
112 1 1.8032923546407305 14.44250374919424 12.636866860222533
113 1 0.0010225516696175873 14.439929956794996 14.43611043624448
114 1 1.8046306667043588 16.24489588216732 14.443449719828163
115 1 0.002379591769899483 16.244975199375236 16.2472390860902
116 1 1.8051909162617343 14.441094539816062 16.248215079432935
117 1 0.0032253909714720823 14.441068086537408 18.051386698959647
118 1 1.8053313070342016 16.247060675346845 18.047164766324542
119 1 0.0002655355214196891 16.24500957676444 19.858407457612735
120 1 1.8043491903207864 14.436963659806752 19.853365140076185
121 1 0.0026864454755340388 18.04991077024519 0.002261683264905189
122 1 1.8086047467894908 19.854870470185443 21.659667412008684
123 1 3.274047306940406e-05 19.855033195470885 1.8017717265137694
124 1 1.8023210842363555 18.051669783990747 1.8036570190044985
125 1 0.0006436596025041589 18.04665492517306 3.6095486182600385
126 1 1.807231788281244 19.853933836670617 3.612599664582429
127 1 0.0030049475471687907 19.854630033031086 5.413284866817988
128 1 1.8036114754742607 18.049490353706783 5.412164267386842
129 1 0.0008023871811839032 18.047065214813273 7.219673745539474
130 1 1.801384151390695 19.85549798960021 7.220322242521532
131 1 0.0011656304471925332 19.85248998963714 9.02690120879493
132 1 1.8031016891376515 18.0524168749015 9.026684723443331
133 1 0.002027364141955535 18.047247818398734 10.830943878115884
134 1 1.8070600703610484 19.855798852481367 10.827522909228973
135 1 0.0009693977680788502 19.854914813309566 12.63160397154298
136 1 1.802444579533201 18.048554107541438 12.63688691860822
137 1 0.0021970050567407433 18.050784272763767 14.442644073036055
138 1 1.8025589624840757 19.853424589018005 14.441787351427939
139 1 0.0007934995206984796 19.854827649003013 16.241569956238575
140 1 1.8035194363697513 18.05110359990683 16.24762359464183
141 1 0.0017532601928619837 18.05275723925049 18.048905209052446
142 1 1.8050010496039146 19.85499233530385 18.046528152655373
143 1 4.028621740096316e-05 19.854671998767316 19.851720142688546
144 1 1.80573765609428 18.05031545897362 19.85850595518051
145 1 3.6108538181818397 0.002642201158616454 0.0017839714319401337
146 1 5.412927449122208 1.8073834223338945 21.65850886987095
147 1 3.611409601036676 1.8047127380569166 1.8081296579305985
148 1 5.417169356409217 0.002410793044589275 1.803765214122391
149 1 3.6096995976707453 21.659989332868335 3.6066649750610633
150 1 5.4176466234213265 1.8064931563565818 3.610862809515594
151 1 3.6132404791170623 1.806296042721754 5.415180777227676
152 1 5.413690956430783 0.0016633959496075452 5.417677738495861
153 1 3.608457884645637 0.0031025737731498397 7.219721615496764
154 1 5.414368769207274 1.8053585762479096 7.223769581367074
155 1 3.61294774128509 1.8035964459290903 9.024096006290277
156 1 5.411932681231213 0.0013082418959889893 9.02390507437171
157 1 3.6091502829406323 21.658570408353324 10.827330456863871
158 1 5.417669995976933 1.8044345803684678 10.83200142200056
159 1 3.607409851918756 1.802253008351671 12.634647748359075
160 1 5.416190947785251 21.656864578002693 12.634210267522409
161 1 3.6101869828667246 0.0019733790636227836 14.436899110747618
162 1 5.4149276393339285 1.8052096308873478 14.443501380462566
163 1 3.6065254281920236 1.804842997460883 16.244690231181433
164 1 5.4146036962882915 0.0030271646316505658 16.24636271082736
165 1 3.610887270899612 0.0034714388671486696 18.051159059760508
166 1 5.417751577793367 1.8054746045659578 18.052501338191192
167 1 3.612580210507087 1.8032120721297507 19.85532666795827
168 1 5.411504270448748 0.0010129862204943322 19.85549833010091
169 1 3.611427054528707 3.6109776149652046 21.656998698727257
170 1 5.414656138365536 5.415712642292424 0.0034158531272631474
171 1 3.6092523868160766 5.412680466952224 1.8023694460875508
172 1 5.417226744384039 3.6124311758727465 1.8032141562761625
173 1 3.6075827166705725 3.6076148570579973 3.6110637691126297
174 1 5.414545844288313 5.415854821192347 3.6131783869215126
175 1 3.6130187792003152 5.415070173035577 5.416995677395364
176 1 5.417059259081086 3.6076673000607467 5.416734054319868
177 1 3.610793603159838 3.609270135203452 7.2168986888991515
178 1 5.4154931128698465 5.414967805031136 7.216818177118946
179 1 3.61108244071372 5.417145233132388 9.022501022347658
180 1 5.414951171163014 3.6102396322208983 9.028346466514224
181 1 3.6120416531147903 3.6088777908401934 10.82728588571279
182 1 5.41373694954545 5.412886208007207 10.827604733725693
183 1 3.609117618834902 5.418157636630242 12.635946649799406
184 1 5.417102571703426 3.6100282943598896 12.637963046974308
185 1 3.6103863543659847 3.6097972092665014 14.443270952485385
186 1 5.413657899390621 5.417950062543248 14.438129374057722
187 1 3.6072724713655795 5.414752342541074 16.24712985456186
188 1 5.414047854507379 3.6088775525094627 16.24813505849973
189 1 3.6100618008093157 3.6065685918729695 18.049750996097785
190 1 5.412103201757666 5.41676867831225 18.049316629444444
191 1 3.611127087864887 5.417513494833981 19.85286987936442
192 1 5.4167401774205945 3.6128907338921286 19.854858675009066
193 1 3.612581432756608 7.218595595501408 0.00043579214166733726
194 1 5.414492984314291 9.025550490775984 21.656742909580963
195 1 3.609331280636381 9.024141452111587 1.801418666115365
196 1 5.41628002998232 7.2173824686667345 1.8036171345125218
197 1 3.612315039815938 7.2225705988903925 3.611659162063373
198 1 5.418395798452663 9.024849823472355 3.609405698011441
199 1 3.610351121610352 9.02766446210255 5.417218998473536
200 1 5.4134163710119685 7.221791472191088 5.417500574980461
201 1 3.608913193900231 7.219366154617735 7.22332485460109
202 1 5.416095872046186 9.02450881172294 7.223328696528585
203 1 3.6116648216829215 9.027813096153563 9.02373774761112
204 1 5.412875221532699 7.217360309795043 9.024259329357434
205 1 3.610403778456823 7.218913557859979 10.826837262534141
206 1 5.416068327176878 9.027152272486935 10.82819337031016
207 1 3.6076910873531602 9.022628638323452 12.63348780174198
208 1 5.411836035602275 7.2185542937905005 12.63496790814908
209 1 3.6069291669842594 7.220212183034188 14.438238662885983
210 1 5.416415375048813 9.026133528762827 14.437020688932785
211 1 3.6100092217468376 9.025370484620845 16.248688176204855
212 1 5.415532182434869 7.217971526723027 16.24755770840502
213 1 3.6111897312142482 7.217226676404395 18.0516099058552
214 1 5.417731434238691 9.022741438265204 18.050369408643704
215 1 3.6123969236982134 9.022460617969596 19.854807871631134
216 1 5.415430729287242 7.216982589337865 19.8534376394476
217 1 3.612848119601927 10.830416132292346 21.65831254367959
218 1 5.413779619583674 12.636761027019586 21.65728222563297
219 1 3.6089260080109486 12.633798301932059 1.8025715170421663
220 1 5.413985009537151 10.82651420760278 1.804808525608839
221 1 3.610460035016031 10.82923313597965 3.6068028157242193
222 1 5.416915287649046 12.632819762071328 3.6081531063476397
223 1 3.6108002769500804 12.637816771298896 5.413141508147386
224 1 5.416657008980087 10.826915699017054 5.415106510065991
225 1 3.609732667483054 10.830424354570305 7.216513137919583
226 1 5.415892022875138 12.637423740127165 7.218100065104088
227 1 3.6093044757886155 12.635913859918329 9.028479368028457
228 1 5.414948136754017 10.830009812444313 9.02841605123755
229 1 3.612367697634612 10.82857548841724 10.832462999627362
230 1 5.415396808329769 12.638157041986249 10.831272811543522
231 1 3.6095693348351006 12.635199682972855 12.63835659572855
232 1 5.412329433666363 10.828296871824739 12.635932024262654
233 1 3.6073914890181027 10.831200392286407 14.438350486928238
234 1 5.414702742365265 12.635091444850055 14.443250334154357
235 1 3.612683437098498 12.635827429632847 16.247132875233106
236 1 5.413484066222206 10.826851186999695 16.244382581850648
237 1 3.608416768991548 10.831931256268707 18.04786662795213
238 1 5.414296001969556 12.635383552984292 18.05323070836609
239 1 3.610454639347275 12.635174644736937 19.858539772950294
240 1 5.412675677484527 10.83217624729272 19.855579713297587
241 1 3.609257083301158 14.443316418815984 0.001415536735457549
242 1 5.414700895751703 16.24482893550191 21.65659630902277
243 1 3.610951882264109 16.245136774210014 1.8019157206040122
244 1 5.41168869892376 14.440848527186906 1.8050803127417379
245 1 3.610478500598291 14.442952222593021 3.608306056230893
246 1 5.412772911440659 16.244992010221758 3.607169802018088
247 1 3.6067703058883245 16.243935881522408 5.415267612134656
248 1 5.4172353562745865 14.437746030145417 5.415777200454349
249 1 3.610464097695751 14.439899729575826 7.223455886126188
250 1 5.415571358714066 16.24582843462263 7.216533120090272
251 1 3.6095452606636327 16.246303030250598 9.021693664138422
252 1 5.416389307135029 14.436957906810648 9.025390609643472
253 1 3.611286348075873 14.439523601618008 10.826658921368809
254 1 5.417419347110417 16.2434596256372 10.83142288242683
255 1 3.6097155137636476 16.24281016505479 12.637043679154008
256 1 5.413941814036917 14.440209520271347 12.631893616786593
257 1 3.60889814836657 14.436909914034217 14.439843859267668
258 1 5.414385837633896 16.24186706296118 14.438171813793039
259 1 3.6075666184024313 16.243829944738994 16.24706979007505
260 1 5.415567898580839 14.44352974578237 16.24542267478456
261 1 3.609187366727331 14.440040730661496 18.05349992529811
262 1 5.413703358065588 16.24243704789776 18.052146762690818
263 1 3.610127277356323 16.245086425156725 19.858303019547996
264 1 5.416473951098623 14.4395433692261 19.858111301852546
265 1 3.60813719828789 18.050795030497707 21.65689516741367
266 1 5.412993485698681 19.855233046847182 0.0029982026258383162
267 1 3.6120027474518652 19.852445159056355 1.8037574503564264
268 1 5.416079821469352 18.047205348766827 1.803254180964322
269 1 3.6105065949259108 18.046954088376356 3.6085264996362976
270 1 5.416934603668373 19.85267893685672 3.608696138540482
271 1 3.6085641350966093 19.853602567755036 5.4122430687322485
272 1 5.414544358960868 18.050649054117212 5.411738420142844
273 1 3.612355542058975 18.04951927352019 7.222923800849426
274 1 5.414819599916077 19.85560024232272 7.2231531985982285
275 1 3.611297877157172 19.853110167761 9.022202528140499
276 1 5.4133596950209615 18.05028513997503 9.028027454677689
277 1 3.612312914214545 18.051003100343173 10.827634060410997
278 1 5.417709042765482 19.85303864262635 10.829664809195554
279 1 3.6100318825602056 19.853367515539627 12.632235621727595
280 1 5.41653991587174 18.05208451852461 12.637222134365764
281 1 3.6134481851525133 18.049150185495375 14.440412433553451
282 1 5.415101248112711 19.857849397579024 14.438312392743507
283 1 3.6093578778595203 19.852693182434123 16.24740836027644
284 1 5.417411375282872 18.050888501225323 16.24726943400184
285 1 3.608883374732998 18.04942301279243 18.04704652881793
286 1 5.416668561877139 19.85730350541851 18.048675995260542
287 1 3.610775772252366 19.856748833657143 19.852052864451142
288 1 5.412207322491897 18.04859636957691 19.853561266035282
289 1 7.222129998840084 21.65823549571272 21.658190991121685
290 1 9.025204174256611 1.8054203301550347 21.65691904863415
291 1 7.222241382551387 1.8028831350224435 1.8067821179285624
292 1 9.025611052655774 21.659724846295795 1.808316975572352
293 1 7.2202515503715405 21.659846194660698 3.613504699070576
294 1 9.024316433606593 1.80410870816071 3.61313033839262
295 1 7.2204972522965924 1.8051587798132076 5.411503524137284
296 1 9.026270602968196 0.0015193276567233693 5.411842560527375
297 1 7.217359167957643 0.0010621308300331638 7.221833560159635
298 1 9.024518098735014 1.8058223028199587 7.222751237782769
299 1 7.220807748098182 1.804285729280471 9.028160656938475
300 1 9.024989020710668 21.6592413635893 9.028487773247225
301 1 7.220626709616375 21.65943485502541 10.826742135444707
302 1 9.022208739649608 1.8058010465551835 10.830840032416784
303 1 7.219253409687997 1.8082964076204726 12.634711951326178
304 1 9.02515203599162 0.002109859298032571 12.637787429432068
305 1 7.219904045655863 0.0002638444089664288 14.436682061240433
306 1 9.024899108717335 1.8056823719967767 14.44337495638355
307 1 7.220612870164896 1.8048822305740497 16.241716544912016
308 1 9.024971473067781 21.65993233867423 16.248203885644536
309 1 7.220093749977433 0.003342844682508721 18.05034107010251
310 1 9.026073479635958 1.808499921683888 18.050276249652676
311 1 7.220084009920047 1.805363028175314 19.851681564888793
312 1 9.024935266719272 21.657750408886915 19.852381824214543
313 1 7.2177339842903905 3.6098214658987167 21.65760633187617
314 1 9.027817807169095 5.413935604999747 21.65913605271888
315 1 7.217227733070411 5.415665022238918 1.806917102415286
316 1 9.02574455270653 3.6118902914526125 1.8018569568666305
317 1 7.21765830831272 3.6083901522013435 3.6083203731781057
318 1 9.023819650930673 5.416567300492469 3.6131351535698397
319 1 7.222486716114553 5.414428148257964 5.412801982074497
320 1 9.02409934702894 3.609671129726426 5.411757117349565
321 1 7.219872488431215 3.60953678447899 7.216436189216343
322 1 9.025458761522122 5.414249261659554 7.223034374748345
323 1 7.21755867516106 5.417427170374317 9.025417095869434
324 1 9.02279775102423 3.6115987658996653 9.02329525230221
325 1 7.216676864075268 3.6094845281074495 10.82988675465121
326 1 9.02200341532398 5.416028817855857 10.830863855654261
327 1 7.220444437554274 5.415550845004966 12.637959834648015
328 1 9.022590130103703 3.6116908322190175 12.636902042626314
329 1 7.220441360353351 3.6103454781746933 14.443292072906596
330 1 9.025683339492614 5.415135634856384 14.436510452334232
331 1 7.219535235925448 5.414713269724754 16.24846365324823
332 1 9.026003148601296 3.6089012554505637 16.24802182396416
333 1 7.219081440151433 3.612418605243781 18.047775371719485
334 1 9.02435669830323 5.416869940204064 18.052833181317897
335 1 7.221256148079723 5.414324166319396 19.857923493394097
336 1 9.025974169624815 3.6070365747024136 19.856045827140107
337 1 7.221625995108613 7.216961653881749 0.0008051334124584531
338 1 9.027892986422314 9.024534314272671 21.65879385258932
339 1 7.223212350176091 9.025042877662683 1.805523802711879
340 1 9.024710512966351 7.220850746231837 1.8016592933632107
341 1 7.2228446787742895 7.221275157587874 3.6088773358805133
342 1 9.022347615687206 9.02397336136145 3.6115515524687076
343 1 7.2214433838789125 9.02598247722436 5.418344221039774
344 1 9.025088580333337 7.22032238480956 5.418339832297072
345 1 7.220073046383619 7.2181001288339335 7.222804496775005
346 1 9.02610217316503 9.027481377524804 7.218062460800544
347 1 7.220014388563121 9.024954360109849 9.028667520519205
348 1 9.023090207992116 7.221232521771708 9.02760520995093
349 1 7.216838654995373 7.218681493072765 10.83064254611977
350 1 9.02488625785699 9.025081680535342 10.826848863508749
351 1 7.219409029052675 9.024327274876859 12.63162650461875
352 1 9.026093690363181 7.220697823693708 12.632112980628923
353 1 7.222444528928576 7.218789435784347 14.442577860651566
354 1 9.022452733480366 9.0228611135166 14.439804165151955
355 1 7.221241582474311 9.02532037346633 16.247919696613838
356 1 9.02431597546444 7.218604248498591 16.24184706440877
357 1 7.221209922201884 7.217005659218299 18.04925020537892
358 1 9.023890998009895 9.025898902143869 18.047202218572167
359 1 7.221988277687962 9.026085401261657 19.857366014291294
360 1 9.02399766935794 7.220263308549155 19.85837962890855
361 1 7.216906495840269 10.829400553132656 0.00014621293560978979
362 1 9.024718398507549 12.633952163793175 21.657092479666215
363 1 7.220090984230018 12.637722558155605 1.8025954599335112
364 1 9.021902552104455 10.82884969618441 1.8048600221234719
365 1 7.222137536089036 10.831582277379894 3.611806727365268
366 1 9.025495050477234 12.637906023434708 3.608070361238717
367 1 7.222637366546794 12.636335301011592 5.413472966339506
368 1 9.02282106211105 10.828285086677472 5.417387712714567
369 1 7.2216833562583975 10.832750886312189 7.220525233164565
370 1 9.024121763428862 12.63254603244371 7.222402491073387
371 1 7.2166813685670155 12.63418145715361 9.025079887901136
372 1 9.023054773465987 10.832669616068948 9.026498192461894
373 1 7.219668626161121 10.826713057636018 10.831272385077632
374 1 9.02247006535759 12.634387169913861 10.827662224672908
375 1 7.221852597157402 12.634015082551421 12.631937472490216
376 1 9.025121044859755 10.829419142891066 12.63130178787247
377 1 7.220082412154804 10.828643640136978 14.437032372068247
378 1 9.024463109111213 12.63356566211681 14.436865311493882
379 1 7.21984886097076 12.633983192095787 16.248451863246974
380 1 9.025430172992255 10.830818608666307 16.24842212517827
381 1 7.216861266072857 10.82932053213022 18.048726805410418
382 1 9.026282093469169 12.636905218777478 18.0472480949247
383 1 7.220208571684689 12.635089730155524 19.858463103072843
384 1 9.022157284614769 10.82877448989834 19.853755672386242
385 1 7.222113186175494 14.442689465305005 0.0005203999776181842
386 1 9.026807774541627 16.243764364930996 21.65756000080175
387 1 7.219607670367615 16.24849402834673 1.8056283365835366
388 1 9.025271251216113 14.440092495329203 1.8083293429647276
389 1 7.220147136190808 14.439449963409064 3.606754608531983
390 1 9.02456495776736 16.24368709846648 3.6068541098155085
391 1 7.2185485693388065 16.246393882501515 5.4118983758901775
392 1 9.026180933318017 14.438140956386485 5.417948001680485
393 1 7.21982439394697 14.439966581955158 7.216556436291347
394 1 9.024201871615455 16.24689235313756 7.2177552071052204
395 1 7.22228603093949 16.2453436395859 9.022581775253096
396 1 9.027686412735626 14.440584969991662 9.027397672604632
397 1 7.218992116448481 14.441005649891952 10.833231377213156
398 1 9.026546232471626 16.242081056720544 10.831086712812452
399 1 7.219494713879311 16.245089259127745 12.631306158478479
400 1 9.02481254930994 14.439236385268746 12.638383515967211
401 1 7.217612437323815 14.43764207511811 14.441017827563993
402 1 9.028396752794961 16.244293181177838 14.43981421658462
403 1 7.220454509465224 16.246627282956553 16.242007144463027
404 1 9.022861532013279 14.438684052259877 16.246771410741232
405 1 7.218876547175974 14.441923905467156 18.047572177150894
406 1 9.02364525577167 16.245059398611648 18.046806100660017
407 1 7.219108400611229 16.247337149331564 19.856987297627953
408 1 9.024415201300707 14.438494254501538 19.851421076381868
409 1 7.219977454814333 18.05116424749747 0.003394388960144146
410 1 9.024163763989984 19.85790793420169 21.658018694888018
411 1 7.217357162348717 19.856443485354273 1.8029255151710186
412 1 9.025598692454338 18.050871359529896 1.808209674499245
413 1 7.220861218172263 18.053337895339983 3.609692807615553
414 1 9.023086072229306 19.855875331628635 3.613206278832914
415 1 7.221582960852296 19.857307784856385 5.413539819803388
416 1 9.024790266906537 18.052805893907898 5.412962964249251
417 1 7.218020591105956 18.047230375338245 7.221053812236346
418 1 9.022771312376005 19.85246709402393 7.219706614538354
419 1 7.217196369883898 19.856490055481714 9.023408104292407
420 1 9.024803283000955 18.046937977836585 9.02374252609218
421 1 7.223081319030122 18.04870645644182 10.829377808664168
422 1 9.026044420818657 19.85595495695773 10.82712707174862
423 1 7.2199741601325265 19.852528788013196 12.632721812821018
424 1 9.026711144189576 18.052617307128337 12.636524690325382
425 1 7.219729912011044 18.0504978073528 14.443337970468777
426 1 9.026485449743252 19.853981984328996 14.436980613347952
427 1 7.217598808429491 19.85536347222043 16.247383895686013
428 1 9.022682737352223 18.047903112811372 16.245835406425485
429 1 7.217152076003589 18.051473634308604 18.04893484859812
430 1 9.02524551233111 19.856118135771357 18.04675249728081
431 1 7.220144209793062 19.855539429797993 19.851588587028658
432 1 9.023745506363701 18.050841735539418 19.85800317794809
433 1 10.829968631938177 21.65996759221732 21.65632255575506
434 1 12.636325693438724 1.8048538117575428 0.0029973642262464155
435 1 10.830194775212854 1.804187938177241 1.801626042509159
436 1 12.633801814646736 0.0002683984505499006 1.801759948639004
437 1 10.83224181968695 21.65704133783398 3.6104671314359886
438 1 12.637661541139142 1.803609949835057 3.6112404620650915
439 1 10.832018891962283 1.8054760576169837 5.412323461622369
440 1 12.635357032755616 0.0007822156234242819 5.4117038614101896
441 1 10.830228757281812 21.65856591520392 7.222824073528293
442 1 12.636356121794242 1.8062170471088717 7.222776872636212
443 1 10.83238035120151 1.8023830355241024 9.025117392237147
444 1 12.636294638599054 21.65872791540045 9.022040217582132
445 1 10.830418433260503 0.0003938149262850231 10.826595608017264
446 1 12.635676579989608 1.8051424254551065 10.826645088200827
447 1 10.826553265568792 1.8033964243441805 12.634969710143006
448 1 12.633657138121622 21.65715957484833 12.636653159639936
449 1 10.830672338104923 21.65934926027055 14.436796145943752
450 1 12.634673940029058 1.804737461428489 14.443343873314841
451 1 10.829009550660066 1.805908520544117 16.241621607695524
452 1 12.634699154419897 0.0005821477120712104 16.241834084124513
453 1 10.830283731785077 0.0004832545696893439 18.053266032261057
454 1 12.633152839127758 1.803168426860176 18.052171410652136
455 1 10.828545806727275 1.8022009942493198 19.854846129254717
456 1 12.635788027451753 21.656796026349372 19.854136430770602
457 1 10.830000464654736 3.61009094666042 0.00350055309825784
458 1 12.634934086816326 5.415005468308448 0.003462944350960733
459 1 10.830317636258624 5.411599565694065 1.8048634752659776
460 1 12.632258377691047 3.6086248416790143 1.806045524221062
461 1 10.829686639369838 3.6089587876663165 3.613441966053638
462 1 12.63660052927027 5.415303969090384 3.6125972782735345
463 1 10.829421008922653 5.413024207194212 5.411747535327848
464 1 12.634933394611261 3.6102023622923674 5.418775361628191
465 1 10.829054265084995 3.609238201308075 7.223257669468414
466 1 12.6380356184984 5.414355520916494 7.218506518528527
467 1 10.831495240580299 5.413651832537684 9.027761668415364
468 1 12.634792049404542 3.6101807135363924 9.028469347127029
469 1 10.830232355747299 3.6066148261757514 10.828915399303979
470 1 12.633502960397974 5.4128772340690645 10.827513552941756
471 1 10.830096877157738 5.415411680794516 12.63848690893425
472 1 12.63761443620639 3.6103512568136695 12.633020645711946
473 1 10.833036240867647 3.6096203182970283 14.438288891251975
474 1 12.634397736058881 5.417056300129965 14.44279121523749
475 1 10.827888916681616 5.416932018486173 16.243812959778683
476 1 12.636885899506652 3.6080838607510533 16.247275062576286
477 1 10.829234929163816 3.609939070590141 18.053314275832545
478 1 12.635650709940256 5.414187200758329 18.05325833916053
479 1 10.832415025601263 5.413188787575818 19.852856724345056
480 1 12.635129717269784 3.609090484060737 19.85162582020593
481 1 10.830174993156481 7.222219992124592 0.0026528448640009044
482 1 12.632379651643324 9.023348273918309 0.0014833490059733864