LAMMPS Description

2000 atoms
1 atom types

0.0 72.2 xlo xhi
0.0 18.05 ylo yhi
0.0 18.05 zlo zhi

Masses

1 63.55

Atoms # atomic

1 1 0.01568477791638573 18.03242248911058 18.02221629479536
2 1 1.7784884948923212 1.8247949597226347 0.004652546014630788
3 1 0.0280770239081919 1.8274774634054727 1.800644486513401
4 1 1.7924809510531565 0.02733915061079602 1.7870764979024931
5 1 0.02532635391500638 18.034596675775397 3.6299147995189003
6 1 1.8167445433488263 1.837540647218525 3.6202536786472654
7 1 0.027660727523904402 1.8238941139740095 5.428681131976012
8 1 1.7987335753613722 18.03225563692975 5.443350645434633
9 1 0.011544358543182583 0.03038741961302277 7.220333621558882
10 1 1.8282169797701695 1.7814027817458247 7.210148204499304
11 1 0.009082828441360904 1.8152619400397991 9.05719646437872
12 1 1.7903483548120962 18.024190285629132 9.003459192960767
13 1 0.010077253179098845 0.010626397668521475 10.799731661554032
14 1 1.8161196711419598 1.7880746900447873 10.804229118271433
15 1 0.012076932643709388 1.8126269572370324 12.609015657212646
16 1 1.833055667139344 18.039405883546145 12.615859820094666
17 1 0.02680588087985555 0.021184352689350663 14.428117815764184
18 1 1.7960449179707059 1.8080576570534352 14.407216412140638
19 1 0.0044720477948421745 1.8398975027722635 16.246475426487404
20 1 1.8101894758339196 18.03673877413996 16.21330406032241
21 1 0.029392764695653564 3.613401900438025 0.015162418535638825
22 1 1.8336718896568747 5.395864998835222 18.044448089019184
23 1 0.006075958792648502 5.41315186757856 1.771369739889906
24 1 1.7863271086348758 3.5917549013979 1.7882182475571873
25 1 0.0037954120241271926 3.63509900158746 3.6339872852567603
26 1 1.8362964333034137 5.404918835609888 3.593698641933274
27 1 0.008234103921576483 5.4236794989957655 5.385387485833077
28 1 1.8120667823143932 3.585669136313174 5.387117317936131
29 1 0.0016981403552563416 3.6282835262201605 7.251683732344345
30 1 1.8232969529052787 5.437363982281841 7.2043189465151025
31 1 0.006668003033158523 5.406578423006463 9.062157209893595
32 1 1.8050704911446722 3.609823923089046 9.057804506751708
33 1 0.03125391048802047 3.6155789972574914 10.81548585807459
34 1 1.8056897641114038 5.383312912951257 10.826660450959672
35 1 0.011907878962307326 5.432061377991893 12.607449206677428
36 1 1.8232123892381418 3.5881421791284938 12.65657826891564
37 1 0.03142976223434312 3.6128441283179322 14.456312105823388
38 1 1.8083159429255664 5.381467556292953 14.447132959582031
39 1 0.0006349830982389838 5.383246530974519 16.228596819190397
40 1 1.7959160254074655 3.5953448050561083 16.277707809987927
41 1 0.008946939431764223 7.188475910185635 18.038642769371798
42 1 10.040719187261512 14.007729857552608 1.8674293278257814
43 1 0.0007044945719591832 9.02528106670801 1.8406929418286233
44 1 1.8027000312899804 7.246580698972534 1.7787386015610513
45 1 0.010227717058687327 7.252144861286458 3.626204596999344
46 1 1.8292098471489464 9.051080523548606 3.6126477169327305
47 1 0.004668850662421195 9.036510217156414 5.383244793023885
48 1 1.818032518957237 7.244953514197192 5.404461388202792
49 1 0.005704404999851453 7.229783829405382 7.187394796319011
50 1 1.7870474786934787 9.009230146283626 7.240377075842606
51 1 0.0004829045484081871 9.120406869625114 8.982214174279854
52 1 1.7959216027009335 7.197391897687962 9.041950041018618
53 1 0.01797887680315702 7.247321001700359 10.829466185689407
54 1 1.8235982673762337 9.050376853864408 10.817438565150397
55 1 0.008226022387754215 9.033805285797136 12.668147583115772
56 1 1.8070608826312986 7.2096783542628105 12.60670926054282
57 1 17.131558281545075 15.08809866033915 13.586271449283858
58 1 1.7888042490187934 9.041710013483916 14.414448988758707
59 1 0.020338751571848144 9.000033972308055 16.231051062080066
60 1 1.7907238753690657 7.194595633894549 16.25665463902847
61 1 0.011640772502462484 10.828253988642977 0.03309787999864991
62 1 1.838679240904383 12.624747888685707 18.03890499605274
63 1 0.0041594320505363965 12.633684010708137 1.7704527396070877
64 1 1.7837112519067977 10.829633414251516 1.7814041606530977
65 1 0.01365357092573818 10.795580387154851 3.604765328240501
66 1 1.8043275626191113 12.655644395821824 3.580951115239694
67 1 0.029203257869757516 12.624577732805585 5.401453852464227
68 1 1.8245290492576307 10.834188799026377 5.389718680630601
69 1 0.01249836496430018 10.819992687222385 7.190919296713153
70 1 1.8052603189157803 12.634913885692217 7.2531121157649245
71 1 0.006200368585082249 12.614671493954617 8.999789489580108
72 1 1.4777499543522772 11.932361873541785 8.78373081259021
73 1 0.03159808801682819 10.823450509319269 10.840560892050748
74 1 1.7723928076838527 12.798482032081733 10.755620623412197
75 1 0.004853372725901296 12.63539889949574 12.601725137046047
76 1 1.8300863785192578 10.836871526879426 12.661307700796426
77 1 0.0031302749595197212 10.840198885827412 14.406684319268754
78 1 1.7979540577190962 12.606224110770972 14.42444273445947
79 1 0.015290414140981444 12.661753499039238 16.225702250477823
80 1 1.8019214670887647 10.80627799103475 16.268598311123032
81 1 0.03462937112615303 14.448365954898135 18.046438349119867
82 1 1.8072854614568992 16.24871771470444 18.01978637573948
83 1 26.1754619858753 9.755342699403018 15.211430628594883
84 1 1.7945525643612046 14.418798511030941 1.8286082840749946
85 1 0.008209017198905086 14.446832922922956 3.6467880942806628
86 1 1.814212610142257 16.219902448734786 3.6241741106069925
87 1 0.002647844555664309 16.22787133044765 5.446529101706295
88 1 1.8023281675628986 14.448339867664835 5.383097791656675
89 1 0.002046553490250959 14.429626936304235 7.18903741890084
90 1 1.8011408652306826 16.281312853054178 7.212752752507679
91 1 0.008182571126915726 16.274661413766008 9.010223457544749
92 1 1.8291354433593348 14.417976943015267 9.014699284170206
93 1 0.030920632926893146 14.434349145449142 10.815260894318039
94 1 1.7979862036056133 16.273816465030826 10.842899328839174
95 1 0.0038892845643190145 16.22420616878437 12.659049587816853
96 1 1.7986094561728316 14.411941432769177 12.614119322239105
97 1 0.02934767396658164 14.447632759386204 14.420772146845778
98 1 1.7815761450863774 16.26713519100104 14.442058464078952
99 1 0.006477825777030489 16.26275103885707 16.273443520313542
100 1 1.7905073639022488 14.448641012818845 16.215184989700543
101 1 3.582464326921941 18.039492239074214 18.034113212674768
102 1 5.43129879668907 1.822657114535233 0.03267502986839675
103 1 26.995377935762352 0.8659451132853513 7.969208715645646
104 1 5.43282836289559 0.021181929105113066 1.829444224544379
105 1 3.611194900188583 0.01886135426035635 3.6423012600305578
106 1 5.422629612489745 1.7807793130064982 3.6302268071618755
107 1 3.6026799993709453 1.7718596632781898 5.416309828932187
108 1 5.417092509139637 18.04463358367778 5.3819714265325445
109 1 3.5894010362946522 18.04498627458603 7.244859789179509
110 1 5.418737561124105 1.7996635901494504 7.2531168613557435
111 1 3.61844161470448 1.815372225489614 9.056686310820774
112 1 5.4430134498896745 18.042952983252306 9.005462156142947
113 1 3.5875050174784735 0.0025063361474771282 10.857408583726135
114 1 5.408966887604207 1.8079531443401575 10.86539336531527
115 1 3.632718527213157 1.8068154691041682 12.65539141177466
116 1 5.3860124073682005 18.041922101717827 12.620486803188301
117 1 3.5888548681147823 18.02071515491932 14.440547999783
118 1 5.385289952587916 1.8296053369365475 14.445236957709406
119 1 3.609047097797651 1.7999848521101038 16.281759480001487
120 1 5.394212778420767 18.0336727708914 16.268681992044925
121 1 3.618923799526046 3.606927679759989 18.016885962952475
122 1 5.429313525914017 5.391963254497804 0.01790226905255651
123 1 3.6383745482385206 5.397453902858316 1.818730224965385
124 1 5.401219826994531 3.604342503338183 1.8365305766022537
125 1 3.599657604825732 3.6315227858601364 3.5888680646286053
126 1 5.591396539980467 5.341559524243347 3.3613836488596354
127 1 3.607311121809156 5.401435809161221 5.449553213142881
128 1 5.445038296532285 3.611517535059114 5.3981250915928864
129 1 3.612562795448295 3.6211045712293535 7.2535702038563565
130 1 5.417836169709886 5.408933983658967 7.254431604508643
131 1 3.620938369030154 5.401030302517138 9.053759349335117
132 1 5.43142855090801 3.5987992555172825 9.056608035243302
133 1 66.88391098466407 2.924517311050975 17.780062772348007
134 1 5.390815352325747 5.412642721959658 10.855510207619892
135 1 3.603716994001317 5.417214173651805 12.668529203280778
136 1 5.386073612752356 3.5933165781281646 12.649221247756852
137 1 3.5869983839145805 3.5864077385796276 14.434846981388283
138 1 5.389643237897171 5.427879246661074 14.421110379502485
139 1 3.6270009057937984 5.394631310339032 16.22083786652479
140 1 5.418526625812061 3.6196517459132296 16.212156265715418
141 1 3.613586164942623 7.219932661941863 18.013147161673803
142 1 5.405877172877764 9.021613872300781 0.03360285934127648
143 1 3.600962188722128 9.024041877580188 1.8386919343922197
144 1 5.418321545569698 7.209662261607631 1.7528637922742007
145 1 3.6255463719222436 7.193636599864697 3.6248169863091206
146 1 5.427791983512445 9.109643146784437 3.61561684016879
147 1 3.6027766045411567 9.029589177669244 5.44502839474229
148 1 5.406891641721593 7.252847377875398 5.424576105672163
149 1 3.6323084005165738 7.23095812869917 7.200708719642146
150 1 27.155843850035822 2.512260372125679 15.487397103275079
151 1 3.6170262030422364 9.029646172799993 9.05955955465903
152 1 5.421418918052761 7.217903551965223 8.990352910331472
153 1 3.635192238175974 7.200757439024615 10.844709244388026
154 1 5.4115714158824035 8.99414679736308 10.84447934975416
155 1 3.6285908852191584 9.05394876176667 12.639468678877359
156 1 5.417352166033262 7.186412498026944 12.643155502596464
157 1 3.5973767482199235 7.188781296214457 14.432390235953864
158 1 5.429964350364755 9.031692730163964 14.469581690217597
159 1 3.6314788880545663 9.037778700394602 16.270301209497575
160 1 5.417024876765723 7.214080154344615 16.212308003932957
161 1 3.641938394977124 10.842690204273493 18.041999123345892
162 1 5.393998778473002 12.622467073693294 0.02253776736849112
163 1 3.605127618353061 12.604967475962187 1.823218688677947
164 1 5.41639148890917 10.831555488867512 1.8392108856786311
165 1 3.624179497866282 10.857396276656727 3.6054464564716873
166 1 5.4222059816272346 12.636658870965935 3.5749010064343594
167 1 3.579222185331455 12.643578534000707 5.406996338162586
168 1 5.411186124800459 10.825793281405431 5.385206561694961
169 1 3.5777610598968974 10.842464814856365 7.209960163902634
170 1 5.37283837200477 12.723875197559737 7.078695170570485
171 1 3.6475113566095634 12.636647219056245 9.016010371590385
172 1 5.437073352884206 10.808016261062322 9.048385086992642
173 1 3.6376012931334087 10.84565567299078 10.837887437819093
174 1 30.269451110585546 0.7366784963737611 7.153376659447553
175 1 3.623424289803663 12.648663847337813 12.603397299282317
176 1 5.414420047102344 10.829858472565327 12.670663202692905
177 1 3.631380916460892 10.836121142887631 14.408304304811386
178 1 5.4365736166579275 12.646508373458001 14.419072178549886
179 1 40.016628125701345 8.92102285597004 0.4383184916606615
180 1 5.384093482205349 10.84358497325984 16.15141384869934
181 1 3.60168824645765 14.453864254984696 0.030510858738030826
182 1 5.426360411742127 16.243348288273648 0.03338696461396906
183 1 3.6094237293135114 16.24433923332946 1.838247781289337
184 1 5.427470428244281 14.433073157110506 1.836989879244058
185 1 3.605873514015153 14.43768666865494 3.647590401029766
186 1 5.4102851494758335 16.25139280828585 3.5786243527234434
187 1 3.615862250085143 16.262086997731746 5.44374602701717
188 1 5.427210525444046 14.418256853191894 5.391349794163691
189 1 40.09970898078033 14.317418411960794 13.417059609451348
190 1 5.397412892427123 16.25170496207659 7.193119260782837
191 1 3.6344871229520925 16.242179704825954 9.000491473975448
192 1 5.399332982936257 14.466093120328281 9.044748676725884
193 1 3.6096181847336 14.440220571824002 10.799428809415335
194 1 5.419326739484855 16.247905823981394 10.86433774787302
195 1 3.6515266972571636 16.14263940575314 12.747178850877336
196 1 5.3910645810035644 14.464991084347863 12.635952541978279
197 1 3.6220340844533703 14.432521740157616 14.472131667303117
198 1 5.415734356420808 16.24391791946645 14.473992246957312
199 1 3.627156325310407 16.221577158148058 16.23294335558877
200 1 5.402018285700445 14.440170014756987 16.27784220887223
201 1 7.18774975244411 0.003201029335522277 18.032374017252597
202 1 9.007516001676395 1.7809213178223222 0.011960673604233977
203 1 7.212015860719647 1.787764485565329 1.7770544047672154
204 1 9.044914353562776 18.021483864995968 1.8204197733568768
205 1 7.226857744837274 0.0011480632101101634 3.576486208710711
206 1 9.028812350908874 1.8333624870651535 3.628872102986441
207 1 7.2252454318879655 1.8000267801812984 5.444796660369908
208 1 9.035511759551724 0.0070184617506406375 5.447725839542993
209 1 7.248589563227134 18.044317201472403 7.241299097845546
210 1 9.012267812923834 1.7766420720866543 7.218453267499217
211 1 7.237351475062348 1.7748920517723112 9.02332181379666
212 1 9.04847867556691 0.018282029789423303 9.047557711446162
213 1 7.249877726666295 0.017728524858204184 10.82418668493814
214 1 9.020278293524944 1.8345892264332084 10.813576853014672
215 1 7.226151914251079 1.8264162715507035 12.660155338569119
216 1 9.041432915293777 0.010353329761827682 12.60654739549157
217 1 7.222531500321389 0.013594589295136359 14.406936944349667
218 1 8.994652324130415 1.7910250474037548 14.433105359112913
219 1 7.208691435766971 1.8008767330323476 16.27426956252103
220 1 9.037582672556432 18.03323860529644 16.22100275243645
221 1 7.237420160536779 3.5998564635888366 0.03013483772370095
222 1 9.054772050900961 5.419142449954966 0.013622820181516879
223 1 7.2077291882342145 5.386737813429523 1.790980181023411
224 1 9.01069591149018 3.5835581642704804 1.815604817617664
225 1 7.21873385164694 3.6112452444317067 3.6454681883288838
226 1 9.039137775547479 5.420922748807023 3.6402989527171035
227 1 7.200031429016462 5.417721575829462 5.444309857152512
228 1 9.050722221005131 3.6310054583935876 5.406406067222442
229 1 7.002627588719292 3.843547563160949 7.321833782516778
230 1 9.007926753663218 5.40282747713616 7.2490661939751755
231 1 7.200666938240734 5.41693572696601 8.999539145801375
232 1 9.037257678650237 3.6416068635052974 9.016031662087556
233 1 7.225839290849282 3.6130599138708286 10.79718142959882
234 1 9.02519450202491 5.4483548504907215 10.838084871349624
235 1 7.217744592518004 5.395593286043748 12.662621692014001
236 1 9.023440380549529 3.62152411904421 12.667791771308792
237 1 7.196958013451207 3.58646114283298 14.424621281308141
238 1 9.033796183233902 5.411794611624901 14.476583424901042
239 1 7.2355251062813055 5.44802329862962 16.23426827271805
240 1 9.006691770111956 3.606666524241472 16.213025137615194
241 1 7.23554752556949 7.221226199758454 18.020983736951056
242 1 9.022519050042014 9.004032596781826 0.02511294619867604
243 1 7.2088727789882086 9.015524434673667 1.839775530220021
244 1 9.024957353948112 7.220014213041985 1.8406794017441144
245 1 7.211095225687426 7.224757483801864 3.6401631782215405
246 1 9.029992058986881 9.022386235438828 3.575255297561442
247 1 7.238209283961776 9.025655391628925 5.384982950237846
248 1 9.026687167384877 7.2193297110700945 5.3785788652450846
249 1 7.2500019536019575 7.208733209586139 7.208008352971573
250 1 9.008011243846367 9.056164636261833 7.228976297012411
251 1 7.2491152692036644 9.04490297484377 9.021256540587812
252 1 9.02568372262442 7.220511847021191 8.992235185486726
253 1 7.227951165465393 7.222184085065808 10.86279308995684
254 1 9.003984372780799 8.998669331970216 10.830016606198985
255 1 7.2183569814136055 9.033990433354912 12.602996631904261
256 1 9.029908904419175 7.200680516217759 12.662279027716144
257 1 7.2336829470059545 7.1896052042739695 14.44393173779792
258 1 9.027399277721974 9.016161958534552 14.474866078635445
259 1 7.200372022112675 9.043593361982635 16.266300937196927
260 1 9.041579703170283 7.234947709047247 16.21853596135626
261 1 7.235550419711594 10.827114911625346 0.03260165118983487
262 1 9.012669724253225 12.674014006345116 0.005990889954851068
263 1 7.255736142697526 12.627197904535633 1.797330839649644
264 1 9.04868172274255 10.791940883490831 1.8301878180320847
265 1 7.212864207776891 10.853872532967314 3.5825418583868287
266 1 9.0020185522249 12.635322544225646 3.6341725885623357
267 1 7.208773459120756 12.598946487615168 5.413016753502226
268 1 9.007478573980139 10.838538523469062 5.385434076837493
269 1 7.249936268248624 10.826937289141766 7.23138735391895
270 1 9.02874003708646 12.627018869451106 7.252745127066554
271 1 7.208834783073625 12.663195652387573 9.007611069451752
272 1 9.029825823793509 10.834262412250311 9.057240818363212
273 1 7.252028037298615 10.841686633837886 10.824957036729623
274 1 9.012115190507998 12.64859931493557 10.801442369136986
275 1 7.216368801730891 12.639776255265796 12.603119196051956
276 1 9.022555346978637 10.832324583194838 12.67205525265269
277 1 7.211762481829843 10.859822227550467 14.455943968969242
278 1 9.042036005083482 12.659145513863558 14.430763727878043
279 1 7.189550383074887 12.643886502663303 16.23511107244126
280 1 9.008844494112912 10.857113453882322 16.230618564872522
281 1 7.2199405207125835 14.439902089103086 0.0378767623802245
282 1 68.33219223211788 14.846397659883609 8.241171688862227
283 1 7.20000338273482 16.224061287976753 1.8231778973330064
284 1 8.816378011798374 14.525026763924373 1.8218178918694201
285 1 7.217326497661824 14.446175514543121 3.641691111321523
286 1 9.029741747898381 16.276889008893598 3.622123839734389
287 1 7.2215624744127505 16.240497977183914 5.450595038427379
288 1 8.994674284173144 14.45102780534455 5.400031579465456
289 1 7.237301872826417 14.416879357908815 7.23916015945881
290 1 9.063022446091345 16.228696177264858 7.1645085759349945
291 1 7.21230203764772 16.274669399805333 9.039138358444042
292 1 9.012006962680742 14.437227659354104 8.996190204000285
293 1 7.210605057026075 14.431156362169748 10.861875252775944
294 1 9.007935656053347 16.224985717662992 10.809173992800291
295 1 7.190261921047895 16.249103706650832 12.618558409495044
296 1 8.99840907122226 14.419310627436156 12.636115299135135
297 1 7.251698986018642 14.428197419095063 14.436043990383913
298 1 20.098769399351976 1.8221567867385386 15.82446550654541
299 1 7.1978491125005295 16.23776070142978 16.269980112990876
300 1 9.041660791063224 14.458215515950721 16.223301718462473
301 1 69.34958962411574 9.18034023771195 6.525409718437288
302 1 12.660032940635173 1.8089373339319612 18.027026524301224
303 1 10.833810477856764 1.8002651848067595 1.8390443177080729
304 1 12.655699916187382 18.025666054021894 1.7924027340957074
305 1 10.814599457270718 0.0012391400565187948 3.578266180202822
306 1 12.610617268751119 1.785540589206482 3.6057689607894616
307 1 29.49886094063876 0.26913079553641217 11.368701657308174
308 1 12.63066728622262 18.043814953096998 5.380641599158905
309 1 10.84905713393608 18.04736268166801 7.247275129249012
310 1 12.626698802282847 1.8002000911922484 7.2522685203544945
311 1 10.825156672047992 1.8047808450493419 8.99306938206392
312 1 12.641148068496307 0.027151656925281716 9.007040647986623
313 1 0.6839391013144349 8.087279058297474 9.29575825159561
314 1 12.618934625617872 1.8053328948840026 10.796556349963067
315 1 10.82551896759482 1.8248339210237952 12.664146884960376
316 1 12.652241690588443 0.00987512828863321 12.661979587586258
317 1 10.850674197052463 0.02555184609011894 14.426217232907678
318 1 12.634451014024414 1.8151789944859718 14.47038563731731
319 1 10.795850613681175 1.8105728772823133 16.242711588037203
320 1 12.634367413010883 18.047164856769783 16.210760561022763
321 1 10.86386466485224 3.6120369692747256 18.043129555974005
322 1 12.657971486133658 5.430635794157249 0.018537980316604957
323 1 10.857423140906809 5.402489405310139 1.8176088975772287
324 1 12.626083277542772 3.612787153314093 1.8384470759555145
325 1 10.821921543149967 3.613462752563605 3.64542048462436
326 1 12.641345503631918 5.412725437809543 3.637268456132201
327 1 10.806718121803872 5.4183766723786455 5.4383159994921115
328 1 12.66743598961976 3.5999888005920644 5.405704918762677
329 1 10.836569662050014 3.578589276707903 7.210974085671279
330 1 12.647410331546576 5.416081290372222 7.252245189868693
331 1 10.843806533594702 5.408216523928249 8.995513276179272
332 1 12.616165158275196 3.580807677381195 9.030487806179666
333 1 24.688500079188273 7.237858693998667 5.174061252605428
334 1 12.62845899774208 5.4079850855852 10.792123592903625
335 1 10.860719427586801 5.418703407556765 12.641146267708844
336 1 12.611821652536824 3.63366488227903 12.62195975930065
337 1 10.834366086104582 3.6156090857730665 14.472371931617719
338 1 12.664072388446447 5.394141506305913 14.441672172435556
339 1 10.833188250805565 5.440999054437217 16.265170386373914
340 1 12.639399922564435 3.5765036584834924 16.253161627117947
341 1 10.825356830319718 7.250740219968387 18.03960140491608
342 1 12.61668592474386 9.040008967244631 0.028128321925394488
343 1 10.824978280465427 9.0534918737086 1.8272504173828215
344 1 12.638354540759451 7.207986644297163 1.7734540744693763
345 1 10.819384580206057 7.193132423252876 3.6298441769119068
346 1 12.622338391691109 8.996507110283346 3.6261914222896965
347 1 10.96196115540763 8.889519012120209 5.247911536169817
348 1 12.61671680925019 7.193369201802747 5.397162517356143
349 1 10.110802295038239 7.934768857922883 6.536867265216505
350 1 12.641993635761127 9.040116448542022 7.250474701381139
351 1 10.835236566129476 9.024677279085529 9.0570475366643
352 1 12.636005759379833 7.223370534866088 8.991539011287157
353 1 10.825976638159775 7.225667354370764 10.794550090034766
354 1 12.663887389124685 9.01550907707723 10.811915020573299
355 1 10.798448239783133 9.017210604746499 12.625660788130732
356 1 12.64106077832357 7.192044805920918 12.615485536527059
357 1 10.833531969888464 7.218525705254688 14.472670491104545
358 1 12.61892380094058 9.053047511924913 14.42866430622729
359 1 10.567699842386306 9.152119092036742 16.27453782130212
360 1 12.63829114298331 7.215931447442535 16.275603976522326
361 1 10.813976355457429 10.796524483378642 0.007270623980595066
362 1 12.614325181084524 12.661785613610165 18.041298951513024
363 1 10.821048097579615 12.6158301614198 1.8335648840518681
364 1 12.668158513236772 10.814635169769135 1.800449838332233
365 1 10.832742664275742 10.833594677678368 3.5784647161875487
366 1 12.630542692541436 12.641700117372006 3.5718421503422135
367 1 10.856894323969529 12.618441813887753 5.405202127557705
368 1 12.622927816970488 10.826005339145917 5.4475484165847075
369 1 10.846564109901285 10.831083285994746 7.189633267374509
370 1 12.647835093447426 12.644495010586162 7.250681489224356
371 1 10.862254497554401 12.634546816922537 9.038931793139362
372 1 12.631356488816996 10.833861574940903 8.989452199122152
373 1 10.675550519245585 10.49378222102222 10.462697019600858
374 1 12.659785140297174 12.62185631674108 10.853808535330279
375 1 10.836846483517471 12.633424706648658 12.609149156730354
376 1 12.638508018228439 10.833373372142853 12.668959294128392
377 1 10.855185279607882 10.823023789815874 14.439341591634982
378 1 12.516466844967365 12.349966921744803 14.662474506515629
379 1 10.941521729530034 12.577771642313548 16.495893248553674
380 1 12.641489901650605 10.824055783707394 16.276963636056692
381 1 10.829286720568719 14.469809327055335 0.01293865096163871
382 1 12.652800940669861 16.22156886886886 18.031930357578347
383 1 10.843697513845555 16.24293859718526 1.7748229953100798
384 1 12.632751007784092 14.409955468122048 1.8179934620182583
385 1 10.826966571432491 14.469290363178956 3.624270390029141
386 1 12.629347349128004 16.22808555586041 3.5798535248395145
387 1 10.852485646341929 16.236902365426683 5.392832440940971
388 1 12.624062025020075 14.44482027865822 5.382308870991053
389 1 10.83069790983253 14.407235033013102 7.2105066736875845
390 1 12.607268552901026 16.22518172921021 7.2156773379485895
391 1 10.811453641080865 16.25108555264324 9.001449805048344
392 1 12.636332975916018 14.43983248074108 9.06173674442474
393 1 10.838671805133568 14.47308635533733 10.839483017839552
394 1 12.62954616901522 16.244092756704195 10.802057325361783
395 1 10.839652288230223 16.215309309066324 12.653575151267628
396 1 12.639150878000105 14.45257546514736 12.59608358523269
397 1 10.834401244082306 14.427510431305704 14.408299374403589
398 1 12.66232997596447 16.262012663503302 14.440398427462068
399 1 10.832089696963896 16.23620049432834 16.21881535251085
400 1 12.61021719091326 14.460973187459969 16.256558077260145
401 1 14.433870239167243 18.03360422055888 18.019105911907683
402 1 16.234603993054975 1.8358251237528977 18.041868411835814
403 1 14.433943085474851 1.8259855256266786 1.7779032738464238
404 1 16.25216639811912 18.041525753266864 1.772090754573135
405 1 14.460615957620737 18.024443714325383 3.601190930024665
406 1 16.248766718431142 1.7973422751524426 3.645156852005851
407 1 14.417153125700912 1.8284115304849549 5.42765126907974
408 1 16.238161315558234 18.04082410907952 5.382093119373751
409 1 14.417472746628269 0.001185307567923008 7.19261914801209
410 1 16.22754920127332 1.8225899468382183 7.196480047643973
411 1 14.472940124089119 1.8123181761835492 9.020649841696624
412 1 16.250601969621968 18.017283865182257 9.00962228704541
413 1 14.46820905887271 0.01835265339377635 10.831791661867879
414 1 5.165102517891479 7.869730642275037 3.103925468814639
415 1 14.418821160171568 1.7941502018578648 12.662925897299825
416 1 16.26523981008552 18.026795527535302 12.647306691069122
417 1 60.17254440919869 13.362133612563953 6.598174616415902
418 1 16.217852452680276 1.8093046798840897 14.461357308363567
419 1 14.418225182124372 1.7804988860964843 16.237505295244084
420 1 16.25048359488431 0.02385895700728146 16.269556666267093
421 1 22.441293852108416 17.956261858632516 9.610446797930827
422 1 16.23460884011904 5.391003789775791 18.02612862705613
423 1 14.441362523568642 5.418403085712912 1.772583953149599
424 1 16.23048079638656 3.636433128905381 1.8116245422025592
425 1 14.432458298707607 3.619407546342562 3.6424263866004396
426 1 16.26804084174996 5.408279108778348 3.6336547269511823
427 1 14.468103167783616 5.409154813763847 5.418535379910357
428 1 16.24553033684427 3.594974201879135 5.450039327503054
429 1 14.437041461661583 3.5923695418014603 7.191355012726501
430 1 16.242039177664775 5.4078876968862115 7.254915751335131
431 1 14.41177860800072 5.4419758102351095 9.02711115800095
432 1 16.24534759686702 3.5951477382235977 8.996014593739085
433 1 14.437825926996178 3.5850735725820173 10.805003258408648
434 1 16.237506283330298 5.380916047500327 10.833457879885472
435 1 14.432074682659533 5.444897225011696 12.621785463214207
436 1 16.254317926963164 3.5865923891484157 12.661900399496778
437 1 14.407195490878921 3.6000911305306498 14.432209249835775
438 1 16.280104102085193 5.416132755494492 14.4346850592379
439 1 14.44712964024068 5.4321471998855175 16.21392399759364
440 1 16.24697233069892 3.5747574858733424 16.246135705688484
441 1 14.410676583250577 7.202776269408407 0.008832772019899444
442 1 16.22986366787955 9.047675253051201 18.031790461670187
443 1 14.419523660833834 8.998523286915818 1.806261217339974
444 1 16.229051165630178 7.222175087917103 1.8369262459454407
445 1 14.412351303920104 7.241283389171281 3.612897404112953
446 1 16.253668330721634 9.01244016577873 3.6407479941328265
447 1 14.431875580708182 9.045142049173716 5.3926524998112395
448 1 16.218279308381675 7.239119510597437 5.412314870905143
449 1 14.386925432252161 7.397614301594457 7.421072318732399
450 1 16.250203491796903 8.995975608544558 7.235508559976377
451 1 14.443804349518548 9.037638276215999 9.053360268999588
452 1 16.275331773242716 7.215299197607811 9.01242765627881
453 1 14.43636692518769 7.2520224820659385 10.824318184965692
454 1 16.22945459365495 9.055819145060738 10.82561794299216
455 1 14.45014404377723 9.010614629459537 12.606535463568866
456 1 58.227793892527835 14.60938873013388 6.143685562857941
457 1 59.992428164229416 17.81763786646349 13.355563639561552
458 1 16.241937040776797 9.027599317130152 14.473106721547504
459 1 14.449255215945612 9.05922351634531 16.24240339336834
460 1 16.26472571873694 7.22609752433141 16.276044301111167
461 1 14.42923478641985 10.8273227624059 18.01578738579828
462 1 38.806199674218824 17.386826856254388 16.873746025839022
463 1 14.414549700051634 12.65379521875694 1.7899742354043526
464 1 16.23000623570333 10.832821326860907 1.7752196861209415
465 1 14.43517517223746 10.863055614879134 3.597154974148563
466 1 16.228921592752087 12.606780690744584 3.6180155462603754
467 1 14.462337133014648 12.65243593864833 5.435789740316385
468 1 16.21812091858176 10.847102415970864 5.422964280031094
469 1 14.426235962237818 10.855823481706912 7.241413218614844
470 1 16.253674549431953 12.60380597475912 7.208251143974721
471 1 14.45737778305703 12.612592781646418 9.007588496582699
472 1 16.244890344999597 10.82997849948817 8.990972684117159
473 1 14.438614790901088 10.819673887025697 10.86004189030442
474 1 16.25812964914576 12.634203636516173 10.799788468518113
475 1 14.445292752086207 12.657746762936872 12.609014390740548
476 1 16.235280403682754 10.851033250326903 12.611166502467041
477 1 14.422232032485335 10.821120636912465 14.467294310723567
478 1 16.248246364148777 12.607428737105053 14.464044567307491
479 1 14.42478125451197 12.65415566506076 16.266048642551986
480 1 16.257457554450546 10.832675141172585 16.2105491692993
481 1 14.44309030151543 14.413283259321231 18.03245752852576
482 1 16.269204948808206 16.226583377136382 0.020461051692149058
483 1 14.454760678644455 16.221127168967858 1.825936349145281
484 1 16.245155547790457 14.465980680677365 1.7797472195156903