LAMMPS Description

12000 atoms
1 atom types

0.0 105.6 xlo xhi
0.0 35.2 ylo yhi
0.0 35.2 zlo zhi

Masses

1 58.69

Atoms # atomic

1 1 0.0 0.0 0.0
2 1 1.76 1.76 0.0
3 1 0.0 1.76 1.76
4 1 1.76 0.0 1.76
5 1 0.0 0.0 3.52
6 1 1.76 1.76 3.52
7 1 0.0 1.76 5.28
8 1 1.76 0.0 5.28
9 1 0.0 0.0 7.04
10 1 1.76 1.76 7.04
11 1 0.0 1.76 8.8
12 1 1.76 0.0 8.8
13 1 0.0 0.0 10.56
14 1 1.76 1.76 10.56
15 1 0.0 1.76 12.32
16 1 1.76 0.0 12.32
17 1 0.0 0.0 14.08
18 1 1.76 1.76 14.08
19 1 0.0 1.76 15.84
20 1 1.76 0.0 15.84
21 1 0.0 0.0 17.6
22 1 1.76 1.76 17.6
23 1 0.0 1.76 19.36
24 1 1.76 0.0 19.36
25 1 0.0 0.0 21.12
26 1 1.76 1.76 21.12
27 1 0.0 1.76 22.88
28 1 1.76 0.0 22.88
29 1 0.0 0.0 24.64
30 1 1.76 1.76 24.64
31 1 0.0 1.76 26.4
32 1 1.76 0.0 26.4
33 1 0.0 0.0 28.16
34 1 1.76 1.76 28.16
35 1 0.0 1.76 29.92
36 1 1.76 0.0 29.92
37 1 0.0 0.0 31.68
38 1 1.76 1.76 31.68
39 1 0.0 1.76 33.44
40 1 1.76 0.0 33.44
41 1 0.0 3.52 0.0
42 1 1.76 5.28 0.0
43 1 0.0 5.28 1.76
44 1 1.76 3.52 1.76
45 1 0.0 3.52 3.52
46 1 1.76 5.28 3.52
47 1 0.0 5.28 5.28
48 1 1.76 3.52 5.28
49 1 0.0 3.52 7.04
50 1 1.76 5.28 7.04
51 1 0.0 5.28 8.8
52 1 1.76 3.52 8.8
53 1 0.0 3.52 10.56
54 1 1.76 5.28 10.56
55 1 0.0 5.28 12.32
56 1 1.76 3.52 12.32
57 1 0.0 3.52 14.08
58 1 1.76 5.28 14.08
59 1 0.0 5.28 15.84
60 1 1.76 3.52 15.84
61 1 0.0 3.52 17.6
62 1 1.76 5.28 17.6
63 1 0.0 5.28 19.36
64 1 1.76 3.52 19.36
65 1 0.0 3.52 21.12
66 1 1.76 5.28 21.12
67 1 0.0 5.28 22.88
68 1 1.76 3.52 22.88
69 1 0.0 3.52 24.64
70 1 1.76 5.28 24.64
71 1 0.0 5.28 26.4
72 1 1.76 3.52 26.4
73 1 0.0 3.52 28.16
74 1 1.76 5.28 28.16
75 1 0.0 5.28 29.92
76 1 1.76 3.52 29.92
77 1 0.0 3.52 31.68
78 1 1.76 5.28 31.68
79 1 0.0 5.28 33.44
80 1 1.76 3.52 33.44
81 1 0.0 7.04 0.0
82 1 1.76 8.8 0.0
83 1 0.0 8.8 1.76
84 1 1.76 7.04 1.76
85 1 0.0 7.04 3.52
86 1 1.76 8.8 3.52
87 1 0.0 8.8 5.28
88 1 1.76 7.04 5.28
89 1 0.0 7.04 7.04
90 1 1.76 8.8 7.04
91 1 0.0 8.8 8.8
92 1 1.76 7.04 8.8
93 1 0.0 7.04 10.56
94 1 1.76 8.8 10.56
95 1 0.0 8.8 12.32
96 1 1.76 7.04 12.32
97 1 0.0 7.04 14.08
98 1 1.76 8.8 14.08
99 1 0.0 8.8 15.84
100 1 1.76 7.04 15.84
101 1 0.0 7.04 17.6
102 1 1.76 8.8 17.6
103 1 0.0 8.8 19.36
104 1 1.76 7.04 19.36
105 1 0.0 7.04 21.12
106 1 1.76 8.8 21.12
107 1 0.0 8.8 22.88
108 1 1.76 7.04 22.88
109 1 0.0 7.04 24.64
110 1 1.76 8.8 24.64
111 1 0.0 8.8 26.4
112 1 1.76 7.04 26.4
113 1 0.0 7.04 28.16
114 1 1.76 8.8 28.16
115 1 0.0 8.8 29.92
116 1 1.76 7.04 29.92
117 1 0.0 7.04 31.68
118 1 1.76 8.8 31.68
119 1 0.0 8.8 33.44
120 1 1.76 7.04 33.44
121 1 0.0 10.56 0.0
122 1 1.76 12.32 0.0
123 1 0.0 12.32 1.76
124 1 1.76 10.56 1.76
125 1 0.0 10.56 3.52
126 1 1.76 12.32 3.52
127 1 0.0 12.32 5.28
128 1 1.76 10.56 5.28
129 1 0.0 10.56 7.04
130 1 1.76 12.32 7.04
131 1 0.0 12.32 8.8
132 1 1.76 10.56 8.8
133 1 0.0 10.56 10.56
134 1 1.76 12.32 10.56
135 1 0.0 12.32 12.32
136 1 1.76 10.56 12.32
137 1 0.0 10.56 14.08
138 1 1.76 12.32 14.08
139 1 0.0 12.32 15.84
140 1 1.76 10.56 15.84
141 1 0.0 10.56 17.6
142 1 1.76 12.32 17.6
143 1 0.0 12.32 19.36
144 1 1.76 10.56 19.36
145 1 0.0 10.56 21.12
146 1 1.76 12.32 21.12
147 1 0.0 12.32 22.88
148 1 1.76 10.56 22.88
149 1 0.0 10.56 24.64
150 1 1.76 12.32 24.64
151 1 0.0 12.32 26.4
152 1 1.76 10.56 26.4
153 1 0.0 10.56 28.16
154 1 1.76 12.32 28.16
155 1 0.0 12.32 29.92
156 1 1.76 10.56 29.92
157 1 0.0 10.56 31.68
158 1 1.76 12.32 31.68
159 1 0.0 12.32 33.44
160 1 1.76 10.56 33.44
161 1 0.0 14.08 0.0
162 1 1.76 15.84 0.0
163 1 0.0 15.84 1.76
164 1 1.76 14.08 1.76
165 1 0.0 14.08 3.52
166 1 1.76 15.84 3.52
167 1 0.0 15.84 5.28
168 1 1.76 14.08 5.28
169 1 0.0 14.08 7.04
170 1 1.76 15.84 7.04
171 1 0.0 15.84 8.8
172 1 1.76 14.08 8.8
173 1 0.0 14.08 10.56
174 1 1.76 15.84 10.56
175 1 0.0 15.84 12.32
176 1 1.76 14.08 12.32
177 1 0.0 14.08 14.08
178 1 1.76 15.84 14.08
179 1 0.0 15.84 15.84
180 1 1.76 14.08 15.84
181 1 0.0 14.08 17.6
182 1 1.76 15.84 17.6
183 1 0.0 15.84 19.36
184 1 1.76 14.08 19.36
185 1 0.0 14.08 21.12
186 1 1.76 15.84 21.12
187 1 0.0 15.84 22.88
188 1 1.76 14.08 22.88
189 1 0.0 14.08 24.64
190 1 1.76 15.84 24.64
191 1 0.0 15.84 26.4
192 1 1.76 14.08 26.4
193 1 0.0 14.08 28.16
194 1 1.76 15.84 28.16
195 1 0.0 15.84 29.92
196 1 1.76 14.08 29.92
197 1 0.0 14.08 31.68
198 1 1.76 15.84 31.68
199 1 0.0 15.84 33.44
200 1 1.76 14.08 33.44
201 1 0.0 17.6 0.0
202 1 1.76 19.36 0.0
203 1 0.0 19.36 1.76
204 1 1.76 17.6 1.76
205 1 0.0 17.6 3.52
206 1 1.76 19.36 3.52
207 1 0.0 19.36 5.28
208 1 1.76 17.6 5.28
209 1 0.0 17.6 7.04
210 1 1.76 19.36 7.04
211 1 0.0 19.36 8.8
212 1 1.76 17.6 8.8
213 1 0.0 17.6 10.56
214 1 1.76 19.36 10.56
215 1 0.0 19.36 12.32
216 1 1.76 17.6 12.32
217 1 0.0 17.6 14.08
218 1 1.76 19.36 14.08
219 1 0.0 19.36 15.84
220 1 1.76 17.6 15.84
221 1 0.0 17.6 17.6
222 1 1.76 19.36 17.6
223 1 0.0 19.36 19.36
224 1 1.76 17.6 19.36
225 1 0.0 17.6 21.12
226 1 1.76 19.36 21.12
227 1 0.0 19.36 22.88
228 1 1.76 17.6 22.88
229 1 0.0 17.6 24.64
230 1 1.76 19.36 24.64
231 1 0.0 19.36 26.4
232 1 1.76 17.6 26.4
233 1 0.0 17.6 28.16
234 1 1.76 19.36 28.16
235 1 0.0 19.36 29.92
236 1 1.76 17.6 29.92
237 1 0.0 17.6 31.68
238 1 1.76 19.36 31.68
239 1 0.0 19.36 33.44
240 1 1.76 17.6 33.44
241 1 0.0 21.12 0.0
242 1 1.76 22.88 0.0
243 1 0.0 22.88 1.76
244 1 1.76 21.12 1.76
245 1 0.0 21.12 3.52
246 1 1.76 22.88 3.52
247 1 0.0 22.88 5.28
248 1 1.76 21.12 5.28
249 1 0.0 21.12 7.04
250 1 1.76 22.88 7.04
251 1 0.0 22.88 8.8
252 1 1.76 21.12 8.8
253 1 0.0 21.12 10.56
254 1 1.76 22.88 10.56
255 1 0.0 22.88 12.32
256 1 1.76 21.12 12.32
257 1 0.0 21.12 14.08
258 1 1.76 22.88 14.08
259 1 0.0 22.88 15.84
260 1 1.76 21.12 15.84
261 1 0.0 21.12 17.6
262 1 1.76 22.88 17.6
263 1 0.0 22.88 19.36
264 1 1.76 21.12 19.36
265 1 0.0 21.12 21.12
266 1 1.76 22.88 21.12
267 1 0.0 22.88 22.88
268 1 1.76 21.12 22.88
269 1 0.0 21.12 24.64
270 1 1.76 22.88 24.64
271 1 0.0 22.88 26.4
272 1 1.76 21.12 26.4
273 1 0.0 21.12 28.16
274 1 1.76 22.88 28.16
275 1 0.0 22.88 29.92
276 1 1.76 21.12 29.92
277 1 0.0 21.12 31.68
278 1 1.76 22.88 31.68
279 1 0.0 22.88 33.44
280 1 1.76 21.12 33.44
281 1 0.0 24.64 0.0
282 1 1.76 26.4 0.0
283 1 0.0 26.4 1.76
284 1 1.76 24.64 1.76
285 1 0.0 24.64 3.52
286 1 1.76 26.4 3.52
287 1 0.0 26.4 5.28
288 1 1.76 24.64 5.28
289 1 0.0 24.64 7.04
290 1 1.76 26.4 7.04
291 1 0.0 26.4 8.8
292 1 1.76 24.64 8.8
293 1 0.0 24.64 10.56
294 1 1.76 26.4 10.56
295 1 0.0 26.4 12.32
296 1 1.76 24.64 12.32
297 1 0.0 24.64 14.08
298 1 1.76 26.4 14.08
299 1 0.0 26.4 15.84
300 1 1.76 24.64 15.84
301 1 0.0 24.64 17.6
302 1 1.76 26.4 17.6
303 1 0.0 26.4 19.36
304 1 1.76 24.64 19.36
305 1 0.0 24.64 21.12
306 1 1.76 26.4 21.12
307 1 0.0 26.4 22.88
308 1 1.76 24.64 22.88
309 1 0.0 24.64 24.64
310 1 1.76 26.4 24.64
311 1 0.0 26.4 26.4
312 1 1.76 24.64 26.4
313 1 0.0 24.64 28.16
314 1 1.76 26.4 28.16
315 1 0.0 26.4 29.92
316 1 1.76 24.64 29.92
317 1 0.0 24.64 31.68
318 1 1.76 26.4 31.68
319 1 0.0 26.4 33.44
320 1 1.76 24.64 33.44
321 1 0.0 28.16 0.0
322 1 1.76 29.92 0.0
323 1 0.0 29.92 1.76
324 1 1.76 28.16 1.76
325 1 0.0 28.16 3.52
326 1 1.76 29.92 3.52
327 1 0.0 29.92 5.28
328 1 1.76 28.16 5.28
329 1 0.0 28.16 7.04
330 1 1.76 29.92 7.04
331 1 0.0 29.92 8.8
332 1 1.76 28.16 8.8
333 1 0.0 28.16 10.56
334 1 1.76 29.92 10.56
335 1 0.0 29.92 12.32
336 1 1.76 28.16 12.32
337 1 0.0 28.16 14.08
338 1 1.76 29.92 14.08
339 1 0.0 29.92 15.84
340 1 1.76 28.16 15.84
341 1 0.0 28.16 17.6
342 1 1.76 29.92 17.6
343 1 0.0 29.92 19.36
344 1 1.76 28.16 19.36
345 1 0.0 28.16 21.12
346 1 1.76 29.92 21.12
347 1 0.0 29.92 22.88
348 1 1.76 28.16 22.88
349 1 0.0 28.16 24.64
350 1 1.76 29.92 24.64
351 1 0.0 29.92 26.4
352 1 1.76 28.16 26.4
353 1 0.0 28.16 28.16
354 1 1.76 29.92 28.16
355 1 0.0 29.92 29.92
356 1 1.76 28.16 29.92
357 1 0.0 28.16 31.68
358 1 1.76 29.92 31.68
359 1 0.0 29.92 33.44
360 1 1.76 28.16 33.44
361 1 0.0 31.68 0.0
362 1 1.76 33.44 0.0
363 1 0.0 33.44 1.76
364 1 1.76 31.68 1.76
365 1 0.0 31.68 3.52
366 1 1.76 33.44 3.52
367 1 0.0 33.44 5.28
368 1 1.76 31.68 5.28
369 1 0.0 31.68 7.04
370 1 1.76 33.44 7.04
371 1 0.0 33.44 8.8
372 1 1.76 31.68 8.8
373 1 0.0 31.68 10.56
374 1 1.76 33.44 10.56
375 1 0.0 33.44 12.32
376 1 1.76 31.68 12.32
377 1 0.0 31.68 14.08
378 1 1.76 33.44 14.08
379 1 0.0 33.44 15.84
380 1 1.76 31.68 15.84
381 1 0.0 31.68 17.6
382 1 1.76 33.44 17.6
383 1 0.0 33.44 19.36
384 1 1.76 31.68 19.36
385 1 0.0 31.68 21.12
386 1 1.76 33.44 21.12
387 1 0.0 33.44 22.88
388 1 1.76 31.68 22.88
389 1 0.0 31.68 24.64
390 1 1.76 33.44 24.64
391 1 0.0 33.44 26.4
392 1 1.76 31.68 26.4
393 1 0.0 31.68 28.16
394 1 1.76 33.44 28.16
395 1 0.0 33.44 29.92
396 1 1.76 31.68 29.92
397 1 0.0 31.68 31.68
398 1 1.76 33.44 31.68
399 1 0.0 33.44 33.44
400 1 1.76 31.68 33.44
401 1 3.52 0.0 0.0
402 1 5.28 1.76 0.0
403 1 3.52 1.76 1.76
404 1 5.28 0.0 1.76
405 1 3.52 0.0 3.52
406 1 5.28 1.76 3.52
407 1 3.52 1.76 5.28
408 1 5.28 0.0 5.28
409 1 3.52 0.0 7.04
410 1 5.28 1.76 7.04
411 1 3.52 1.76 8.8
412 1 5.28 0.0 8.8
413 1 3.52 0.0 10.56
414 1 5.28 1.76 10.56
415 1 3.52 1.76 12.32
416 1 5.28 0.0 12.32
417 1 3.52 0.0 14.08
418 1 5.28 1.76 14.08
419 1 3.52 1.76 15.84
420 1 5.28 0.0 15.84
421 1 3.52 0.0 17.6
422 1 5.28 1.76 17.6
423 1 3.52 1.76 19.36
424 1 5.28 0.0 19.36
425 1 3.52 0.0 21.12
426 1 5.28 1.76 21.12
427 1 3.52 1.76 22.88
428 1 5.28 0.0 22.88
429 1 3.52 0.0 24.64
430 1 5.28 1.76 24.64
431 1 3.52 1.76 26.4
432 1 5.28 0.0 26.4
433 1 3.52 0.0 28.16
434 1 5.28 1.76 28.16
435 1 3.52 1.76 29.92
436 1 5.28 0.0 29.92
437 1 3.52 0.0 31.68
438 1 5.28 1.76 31.68
439 1 3.52 1.76 33.44
440 1 5.28 0.0 33.44
441 1 3.52 3.52 0.0
442 1 5.28 5.28 0.0
443 1 3.52 5.28 1.76
444 1 5.28 3.52 1.76
445 1 3.52 3.52 3.52
446 1 5.28 5.28 3.52
447 1 3.52 5.28 5.28
448 1 5.28 3.52 5.28
449 1 3.52 3.52 7.04
450 1 5.28 5.28 7.04
451 1 3.52 5.28 8.8
452 1 5.28 3.52 8.8
453 1 3.52 3.52 10.56
454 1 5.28 5.28 10.56
455 1 3.52 5.28 12.32
456 1 5.28 3.52 12.32
457 1 3.52 3.52 14.08
458 1 5.28 5.28 14.08
459 1 3.52 5.28 15.84
460 1 5.28 3.52 15.84
461 1 3.52 3.52 17.6
462 1 5.28 5.28 17.6
463 1 3.52 5.28 19.36
464 1 5.28 3.52 19.36
465 1 3.52 3.52 21.12
466 1 5.28 5.28 21.12
467 1 3.52 5.28 22.88
468 1 5.28 3.52 22.88
469 1 3.52 3.52 24.64
470 1 5.28 5.28 24.64
471 1 3.52 5.28 26.4
472 1 5.28 3.52 26.4
473 1 3.52 3.52 28.16
474 1 5.28 5.28 28.16
475 1 3.52 5.28 29.92
476 1 5.28 3.52 29.92
477 1 3.52 3.52 31.68
478 1 5.28 5.28 31.68
479 1 3.52 5.28 33.44
480 1 5.28 3.52 33.44
481 1 3.52 7.04 0.0
482 1 5.28 8.8 0.0
483 1 3.52 8.8 1.76
484 1 5.28 7.04 1.76
485 1 3.52 7.04 3.52
486 1 5.28 8.8 3.52
487 1 3.52 8.8 5.28
488 1 5.28 7.04 5.28
489 1 3.52 7.04 7.04
490 1 5.28 8.8 7.04
491 1 3.52 8.8 8.8
492 1 5.28 7.04 8.8
493 1 3.52 7.04 10.56
494 1 5.28 8.8 10.56
495 1 3.52 8.8 12.32
496 1 5.28 7.04 12.32
497 1 3.52 7.04 14.08
498 1 5.28 8.8 14.08
499 1 3.52 8.8 15.84
500 1 5.28 7.04 15.84
501 1 3.52 7.04 17.6
502 1 5.28 8.8 17.6
503 1 3.52 8.8 19.36
504 1 5.28 7.04 19.36
505 1 3.52 7.04 21.12
506 1 5.28 8.8 21.12
507 1 3.52 8.8 22.88
508 1 5.28 7.04 22.88
509 1 3.52 7.04 24.64
510 1 5.28 8.8 24.64
511 1 3.52 8.8 26.4
512 1 5.28 7.04 26.4
513 1 3.52 7.04 28.16
514 1 5.28 8.8 28.16
515 1 3.52 8.8 29.92
516 1 5.28 7.04 29.92
517 1 3.52 7.04 31.68
518 1 5.28 8.8 31.68
519 1 3.52 8.8 33.44
520 1 5.28 7.04 33.44
521 1 3.52 10.56 0.0
522 1 5.28 12.32 0.0
523 1 3.52 12.32 1.76
524 1 5.28 10.56 1.76
525 1 3.52 10.56 3.52
526 1 5.28 12.32 3.52
527 1 3.52 12.32 5.28
528 1 5.28 10.56 5.28
529 1 3.52 10.56 7.04
530 1 5.28 12.32 7.04
531 1 3.52 12.32 8.8
532 1 5.28 10.56 8.8
533 1 3.52 10.56 10.56
534 1 5.28 12.32 10.56
535 1 3.52 12.32 12.32
536 1 5.28 10.56 12.32
537 1 3.52 10.56 14.08
538 1 5.28 12.32 14.08
539 1 3.52 12.32 15.84
540 1 5.28 10.56 15.84
541 1 3.52 10.56 17.6
542 1 5.28 12.32 17.6
543 1 3.52 12.32 19.36
544 1 5.28 10.56 19.36
545 1 3.52 10.56 21.12
546 1 5.28 12.32 21.12
547 1 3.52 12.32 22.88
548 1 5.28 10.56 22.88
549 1 3.52 10.56 24.64
550 1 5.28 12.32 24.64
551 1 3.52 12.32 26.4
552 1 5.28 10.56 26.4
553 1 3.52 10.56 28.16
554 1 5.28 12.32 28.16
555 1 3.52 12.32 29.92
556 1 5.28 10.56 29.92
557 1 3.52 10.56 31.68
558 1 5.28 12.32 31.68
559 1 3.52 12.32 33.44
560 1 5.28 10.56 33.44
561 1 3.52 14.08 0.0
562 1 5.28 15.84 0.0
563 1 3.52 15.84 1.76
564 1 5.28 14.08 1.76
565 1 3.52 14.08 3.52
566 1 5.28 15.84 3.52
567 1 3.52 15.84 5.28
568 1 5.28 14.08 5.28
569 1 3.52 14.08 7.04
570 1 5.28 15.84 7.04
571 1 3.52 15.84 8.8
572 1 5.28 14.08 8.8
573 1 3.52 14.08 10.56
574 1 5.28 15.84 10.56
575 1 3.52 15.84 12.32
576 1 5.28 14.08 12.32
577 1 3.52 14.08 14.08
578 1 5.28 15.84 14.08
579 1 3.52 15.84 15.84
580 1 5.28 14.08 15.84
581 1 3.52 14.08 17.6
582 1 5.28 15.84 17.6
583 1 3.52 15.84 19.36
584 1 5.28 14.08 19.36
585 1 3.52 14.08 21.12
586 1 5.28 15.84 21.12
587 1 3.52 15.84 22.88
588 1 5.28 14.08 22.88
589 1 3.52 14.08 24.64
590 1 5.28 15.84 24.64
591 1 3.52 15.84 26.4
592 1 5.28 14.08 26.4
593 1 3.52 14.08 28.16
594 1 5.28 15.84 28.16
595 1 3.52 15.84 29.92
596 1 5.28 14.08 29.92
597 1 3.52 14.08 31.68
598 1 5.28 15.84 31.68
599 1 3.52 15.84 33.44
600 1 5.28 14.08 33.44
601 1 3.52 17.6 0.0
602 1 5.28 19.36 0.0
603 1 3.52 19.36 1.76
604 1 5.28 17.6 1.76
605 1 3.52 17.6 3.52
606 1 5.28 19.36 3.52
607 1 3.52 19.36 5.28
608 1 5.28 17.6 5.28
609 1 3.52 17.6 7.04
610 1 5.28 19.36 7.04
611 1 3.52 19.36 8.8
612 1 5.28 17.6 8.8
613 1 3.52 17.6 10.56
614 1 5.28 19.36 10.56
615 1 3.52 19.36 12.32
616 1 5.28 17.6 12.32
617 1 3.52 17.6 14.08
618 1 5.28 19.36 14.08
619 1 3.52 19.36 15.84
620 1 5.28 17.6 15.84
621 1 3.52 17.6 17.6
622 1 5.28 19.36 17.6
623 1 3.52 19.36 19.36
624 1 5.28 17.6 19.36
625 1 3.52 17.6 21.12
626 1 5.28 19.36 21.12
627 1 3.52 19.36 22.88
628 1 5.28 17.6 22.88
629 1 3.52 17.6 24.64
630 1 5.28 19.36 24.64
631 1 3.52 19.36 26.4
632 1 5.28 17.6 26.4
633 1 3.52 17.6 28.16
634 1 5.28 19.36 28.16
635 1 3.52 19.36 29.92
636 1 5.28 17.6 29.92
637 1 3.52 17.6 31.68
638 1 5.28 19.36 31.68
639 1 3.52 19.36 33.44
640 1 5.28 17.6 33.44
641 1 3.52 21.12 0.0
642 1 5.28 22.88 0.0
643 1 3.52 22.88 1.76
644 1 5.28 21.12 1.76
645 1 3.52 21.12 3.52
646 1 5.28 22.88 3.52
647 1 3.52 22.88 5.28
648 1 5.28 21.12 5.28
649 1 3.52 21.12 7.04
650 1 5.28 22.88 7.04
651 1 3.52 22.88 8.8
652 1 5.28 21.12 8.8
653 1 3.52 21.12 10.56
654 1 5.28 22.88 10.56
655 1 3.52 22.88 12.32
656 1 5.28 21.12 12.32
657 1 3.52 21.12 14.08
658 1 5.28 22.88 14.08
659 1 3.52 22.88 15.84
660 1 5.28 21.12 15.84
661 1 3.52 21.12 17.6
662 1 5.28 22.88 17.6
663 1 3.52 22.88 19.36
664 1 5.28 21.12 19.36
665 1 3.52 21.12 21.12
666 1 5.28 22.88 21.12
667 1 3.52 22.88 22.88
668 1 5.28 21.12 22.88
669 1 3.52 21.12 24.64
670 1 5.28 22.88 24.64
671 1 3.52 22.88 26.4
672 1 5.28 21.12 26.4
673 1 3.52 21.12 28.16
674 1 5.28 22.88 28.16
675 1 3.52 22.88 29.92
676 1 5.28 21.12 29.92
677 1 3.52 21.12 31.68
678 1 5.28 22.88 31.68
679 1 3.52 22.88 33.44
680 1 5.28 21.12 33.44
681 1 3.52 24.64 0.0
682 1 5.28 26.4 0.0
683 1 3.52 26.4 1.76
684 1 5.28 24.64 1.76
685 1 3.52 24.64 3.52
686 1 5.28 26.4 3.52
687 1 3.52 26.4 5.28
688 1 5.28 24.64 5.28
689 1 3.52 24.64 7.04
690 1 5.28 26.4 7.04
691 1 3.52 26.4 8.8
692 1 5.28 24.64 8.8
693 1 3.52 24.64 10.56
694 1 5.28 26.4 10.56
695 1 3.52 26.4 12.32
696 1 5.28 24.64 12.32
697 1 3.52 24.64 14.08
698 1 5.28 26.4 14.08
699 1 3.52 26.4 15.84
700 1 5.28 24.64 15.84
701 1 3.52 24.64 17.6
702 1 5.28 26.4 17.6
703 1 3.52 26.4 19.36
704 1 5.28 24.64 19.36
705 1 3.52 24.64 21.12
706 1 5.28 26.4 21.12
707 1 3.52 26.4 22.88
708 1 5.28 24.64 22.88
709 1 3.52 24.64 24.64
710 1 5.28 26.4 24.64
711 1 3.52 26.4 26.4
712 1 5.28 24.64 26.4
713 1 3.52 24.64 28.16
714 1 5.28 26.4 28.16
715 1 3.52 26.4 29.92
716 1 5.28 24.64 29.92
717 1 3.52 24.64 31.68
718 1 5.28 26.4 31.68
719 1 3.52 26.4 33.44
720 1 5.28 24.64 33.44
721 1 3.52 28.16 0.0
722 1 5.28 29.92 0.0
723 1 3.52 29.92 1.76
724 1 5.28 28.16 1.76
725 1 3.52 28.16 3.52
726 1 5.28 29.92 3.52
727 1 3.52 29.92 5.28
728 1 5.28 28.16 5.28
729 1 3.52 28.16 7.04
730 1 5.28 29.92 7.04
731 1 3.52 29.92 8.8
732 1 5.28 28.16 8.8
733 1 3.52 28.16 10.56
734 1 5.28 29.92 10.56
735 1 3.52 29.92 12.32
736 1 5.28 28.16 12.32
737 1 3.52 28.16 14.08
738 1 5.28 29.92 14.08
739 1 3.52 29.92 15.84
740 1 5.28 28.16 15.84
741 1 3.52 28.16 17.6
742 1 5.28 29.92 17.6
743 1 3.52 29.92 19.36
744 1 5.28 28.16 19.36
745 1 3.52 28.16 21.12
746 1 5.28 29.92 21.12
747 1 3.52 29.92 22.88
748 1 5.28 28.16 22.88
749 1 3.52 28.16 24.64
750 1 5.28 29.92 24.64
751 1 3.52 29.92 26.4
752 1 5.28 28.16 26.4
753 1 3.52 28.16 28.16
754 1 5.28 29.92 28.16
755 1 3.52 29.92 29.92
756 1 5.28 28.16 29.92
757 1 3.52 28.16 31.68
758 1 5.28 29.92 31.68
759 1 3.52 29.92 33.44
760 1 5.28 28.16 33.44
761 1 3.52 31.68 0.0
762 1 5.28 33.44 0.0
763 1 3.52 33.44 1.76
764 1 5.28 31.68 1.76
765 1 3.52 31.68 3.52
766 1 5.28 33.44 3.52
767 1 3.52 33.44 5.28
768 1 5.28 31.68 5.28
769 1 3.52 31.68 7.04
770 1 5.28 33.44 7.04
771 1 3.52 33.44 8.8
772 1 5.28 31.68 8.8
773 1 3.52 31.68 10.56
774 1 5.28 33.44 10.56
775 1 3.52 33.44 12.32
776 1 5.28 31.68 12.32
777 1 3.52 31.68 14.08
778 1 5.28 33.44 14.08
779 1 3.52 33.44 15.84
780 1 5.28 31.68 15.84
781 1 3.52 31.68 17.6
782 1 5.28 33.44 17.6
783 1 3.52 33.44 19.36
784 1 5.28 31.68 19.36
785 1 3.52 31.68 21.12
786 1 5.28 33.44 21.12
787 1 3.52 33.44 22.88
788 1 5.28 31.68 22.88
789 1 3.52 31.68 24.64
790 1 5.28 33.44 24.64
791 1 3.52 33.44 26.4
792 1 5.28 31.68 26.4
793 1 3.52 31.68 28.16
794 1 5.28 33.44 28.16
795 1 3.52 33.44 29.92
796 1 5.28 31.68 29.92
797 1 3.52 31.68 31.68
798 1 5.28 33.44 31.68
799 1 3.52 33.44 33.44
800 1 5.28 31.68 33.44
801 1 7.04 0.0 0.0
802 1 8.8 1.76 0.0
803 1 7.04 1.76 1.76
804 1 8.8 0.0 1.76
805 1 7.04 0.0 3.52
806 1 8.8 1.76 3.52
807 1 7.04 1.76 5.28
808 1 8.8 0.0 5.28
809 1 7.04 0.0 7.04
810 1 8.8 1.76 7.04
811 1 7.04 1.76 8.8
812 1 8.8 0.0 8.8
813 1 7.04 0.0 10.56
814 1 8.8 1.76 10.56
815 1 7.04 1.76 12.32
816 1 8.8 0.0 12.32
817 1 7.04 0.0 14.08
818 1 8.8 1.76 14.08
819 1 7.04 1.76 15.84
820 1 8.8 0.0 15.84
821 1 7.04 0.0 17.6
822 1 8.8 1.76 17.6
823 1 7.04 1.76 19.36
824 1 8.8 0.0 19.36
825 1 7.04 0.0 21.12
826 1 8.8 1.76 21.12
827 1 7.04 1.76 22.88
828 1 8.8 0.0 22.88
829 1 7.04 0.0 24.64
830 1 8.8 1.76 24.64
831 1 7.04 1.76 26.4
832 1 8.8 0.0 26.4
833 1 7.04 0.0 28.16
834 1 8.8 1.76 28.16
835 1 7.04 1.76 29.92
836 1 8.8 0.0 29.92
837 1 7.04 0.0 31.68
838 1 8.8 1.76 31.68
839 1 7.04 1.76 33.44
840 1 8.8 0.0 33.44
841 1 7.04 3.52 0.0
842 1 8.8 5.28 0.0
843 1 7.04 5.28 1.76
844 1 8.8 3.52 1.76
845 1 7.04 3.52 3.52
846 1 8.8 5.28 3.52
847 1 7.04 5.28 5.28
848 1 8.8 3.52 5.28
849 1 7.04 3.52 7.04
850 1 8.8 5.28 7.04
851 1 7.04 5.28 8.8
852 1 8.8 3.52 8.8
853 1 7.04 3.52 10.56
854 1 8.8 5.28 10.56
855 1 7.04 5.28 12.32
856 1 8.8 3.52 12.32
857 1 7.04 3.52 14.08
858 1 8.8 5.28 14.08
859 1 7.04 5.28 15.84
860 1 8.8 3.52 15.84
861 1 7.04 3.52 17.6
862 1 8.8 5.28 17.6
863 1 7.04 5.28 19.36
864 1 8.8 3.52 19.36
865 1 7.04 3.52 21.12
866 1 8.8 5.28 21.12
867 1 7.04 5.28 22.88
868 1 8.8 3.52 22.88
869 1 7.04 3.52 24.64
870 1 8.8 5.28 24.64
871 1 7.04 5.28 26.4
872 1 8.8 3.52 26.4
873 1 7.04 3.52 28.16
874 1 8.8 5.28 28.16
875 1 7.04 5.28 29.92
876 1 8.8 3.52 29.92
877 1 7.04 3.52 31.68
878 1 8.8 5.28 31.68
879 1 7.04 5.28 33.44
880 1 8.8 3.52 33.44
881 1 7.04 7.04 0.0
882 1 8.8 8.8 0.0
883 1 7.04 8.8 1.76
884 1 8.8 7.04 1.76
885 1 7.04 7.04 3.52
886 1 8.8 8.8 3.52
887 1 7.04 8.8 5.28
888 1 8.8 7.04 5.28
889 1 7.04 7.04 7.04
890 1 8.8 8.8 7.04
891 1 7.04 8.8 8.8
892 1 8.8 7.04 8.8
893 1 7.04 7.04 10.56
894 1 8.8 8.8 10.56
895 1 7.04 8.8 12.32
896 1 8.8 7.04 12.32
897 1 7.04 7.04 14.08
898 1 8.8 8.8 14.08
899 1 7.04 8.8 15.84
900 1 8.8 7.04 15.84
901 1 7.04 7.04 17.6
902 1 8.8 8.8 17.6
903 1 7.04 8.8 19.36
904 1 8.8 7.04 19.36
905 1 7.04 7.04 21.12
906 1 8.8 8.8 21.12
907 1 7.04 8.8 22.88
908 1 8.8 7.04 22.88
909 1 7.04 7.04 24.64
910 1 8.8 8.8 24.64
911 1 7.04 8.8 26.4
912 1 8.8 7.04 26.4
913 1 7.04 7.04 28.16
914 1 8.8 8.8 28.16
915 1 7.04 8.8 29.92
916 1 8.8 7.04 29.92
917 1 7.04 7.04 31.68
918 1 8.8 8.8 31.68
919 1 7.04 8.8 33.44
920 1 8.8 7.04 33.44
921 1 7.04 10.56 0.0
922 1 8.8 12.32 0.0
923 1 7.04 12.32 1.76
924 1 8.8 10.56 1.76
925 1 7.04 10.56 3.52
926 1 8.8 12.32 3.52
927 1 7.04 12.32 5.28
928 1 8.8 10.56 5.28
929 1 7.04 10.56 7.04
930 1 8.8 12.32 7.04
931 1 7.04 12.32 8.8
932 1 8.8 10.56 8.8
933 1 7.04 10.56 10.56
934 1 8.8 12.32 10.56
935 1 7.04 12.32 12.32
936 1 8.8 10.56 12.32
937 1 7.04 10.56 14.08
938 1 8.8 12.32 14.08
939 1 7.04 12.32 15.84
940 1 8.8 10.56 15.84
941 1 7.04 10.56 17.6
942 1 8.8 12.32 17.6
943 1 7.04 12.32 19.36
944 1 8.8 10.56 19.36
945 1 7.04 10.56 21.12
946 1 8.8 12.32 21.12
947 1 7.04 12.32 22.88
948 1 8.8 10.56 22.88
949 1 7.04 10.56 24.64
950 1 8.8 12.32 24.64
951 1 7.04 12.32 26.4
952 1 8.8 10.56 26.4
953 1 7.04 10.56 28.16
954 1 8.8 12.32 28.16
955 1 7.04 12.32 29.92
956 1 8.8 10.56 29.92
957 1 7.04 10.56 31.68
958 1 8.8 12.32 31.68
959 1 7.04 12.32 33.44
960 1 8.8 10.56 33.44
961 1 7.04 14.08 0.0
962 1 8.8 15.84 0.0
963 1 7.04 15.84 1.76
964 1 8.8 14.08 1.76
965 1 7.04 14.08 3.52
966 1 8.8 15.84 3.52
967 1 7.04 15.84 5.28
968 1 8.8 14.08 5.28
969 1 7.04 14.08 7.04
970 1 8.8 15.84 7.04
971 1 7.04 15.84 8.8
972 1 8.8 14.08 8.8
973 1 7.04 14.08 10.56
974 1 8.8 15.84 10.56
975 1 7.04 15.84 12.32
976 1 8.8 14.08 12.32
977 1 7.04 14.08 14.08
978 1 8.8 15.84 14.08
979 1 7.04 15.84 15.84
980 1 8.8 14.08 15.84
981 1 7.04 14.08 17.6
982 1 8.8 15.84 17.6
983 1 7.04 15.84 19.36
984 1 8.8 14.08 19.36
985 1 7.04 14.08 21.12
986 1 8.8 15.84 21.12
987 1 7.04 15.84 22.88
988 1 8.8 14.08 22.88
989 1 7.04 14.08 24.64
990 1 8.8 15.84 24.64
991 1 7.04 15.84 26.4
992 1 8.8 14.08 26.4
993 1 7.04 14.08 28.16
994 1 8.8 15.84 28.16
995 1 7.04 15.84 29.92
996 1 8.8 14.08 29.92
997 1 7.04 14.08 31.68
998 1 8.8 15.84 31.68
999 1 7.04 15.84 33.44
1000 1 8.8 14.08 33.44
1001 1 7.04 17.6 0.0
1002 1 8.8 19.36 0.0
1003 1 7.04 19.36 1.76
1004 1 8.8 17.6 1.76
1005 1 7.04 17.6 3.52
1006 1 8.8 19.36 3.52
1007 1 7.04 19.36 5.28
1008 1 8.8 17.6 5.28
1009 1 7.04 17.6 7.04
1010 1 8.8 19.36 7.04
1011 1 7.04 19.36 8.8
1012 1 8.8 17.6 8.8
1013 1 7.04 17.6 10.56
1014 1 8.8 19.36 10.56
1015 1 7.04 19.36 12.32
1016 1 8.8 17.6 12.32
1017 1 7.04 17.6 14.08
1018 1 8.8 19.36 14.08
1019 1 7.04 19.36 15.84
1020 1 8.8 17.6 15.84
1021 1 7.04 17.6 17.6
1022 1 8.8 19.36 17.6
1023 1 7.04 19.36 19.36
1024 1 8.8 17.6 19.36
1025 1 7.04 17.6 21.12
1026 1 8.8 19.36 21.12
1027 1 7.04 19.36 22.88
1028 1 8.8 17.6 22.88
1029 1 7.04 17.6 24.64
1030 1 8.8 19.36 24.64
1031 1 7.04 19.36 26.4
1032 1 8.8 17.6 26.4
1033 1 7.04 17.6 28.16
1034 1 8.8 19.36 28.16
1035 1 7.04 19.36 29.92
1036 1 8.8 17.6 29.92
1037 1 7.04 17.6 31.68
1038 1 8.8 19.36 31.68
1039 1 7.04 19.36 33.44
1040 1 8.8 17.6 33.44
1041 1 7.04 21.12 0.0
1042 1 8.8 22.88 0.0
1043 1 7.04 22.88 1.76
1044 1 8.8 21.12 1.76
1045 1 7.04 21.12 3.52
1046 1 8.8 22.88 3.52
1047 1 7.04 22.88 5.28
1048 1 8.8 21.12 5.28
1049 1 7.04 21.12 7.04
1050 1 8.8 22.88 7.04
1051 1 7.04 22.88 8.8
1052 1 8.8 21.12 8.8
1053 1 7.04 21.12 10.56
1054 1 8.8 22.88 10.56
1055 1 7.04 22.88 12.32
1056 1 8.8 21.12 12.32
1057 1 7.04 21.12 14.08
1058 1 8.8 22.88 14.08
1059 1 7.04 22.88 15.84
1060 1 8.8 21.12 15.84
1061 1 7.04 21.12 17.6
1062 1 8.8 22.88 17.6
1063 1 7.04 22.88 19.36
1064 1 8.8 21.12 19.36
1065 1 7.04 21.12 21.12
1066 1 8.8 22.88 21.12
1067 1 7.04 22.88 22.88
1068 1 8.8 21.12 22.88
1069 1 7.04 21.12 24.64
1070 1 8.8 22.88 24.64
1071 1 7.04 22.88 26.4
1072 1 8.8 21.12 26.4
1073 1 7.04 21.12 28.16
1074 1 8.8 22.88 28.16
1075 1 7.04 22.88 29.92
1076 1 8.8 21.12 29.92
1077 1 7.04 21.12 31.68
1078 1 8.8 22.88 31.68
1079 1 7.04 22.88 33.44
1080 1 8.8 21.12 33.44
1081 1 7.04 24.64 0.0
1082 1 8.8 26.4 0.0
1083 1 7.04 26.4 1.76
1084 1 8.8 24.64 1.76
1085 1 7.04 24.64 3.52
1086 1 8.8 26.4 3.52
1087 1 7.04 26.4 5.28
1088 1 8.8 24.64 5.28
1089 1 7.04 24.64 7.04
1090 1 8.8 26.4 7.04
1091 1 7.04 26.4 8.8
1092 1 8.8 24.64 8.8
1093 1 7.04 24.64 10.56
1094 1 8.8 26.4 10.56
1095 1 7.04 26.4 12.32
1096 1 8.8 24.64 12.32
1097 1 7.04 24.64 14.08
1098 1 8.8 26.4 14.08
1099 1 7.04 26.4 15.84
1100 1 8.8 24.64 15.84
1101 1 7.04 24.64 17.6
1102 1 8.8 26.4 17.6
1103 1 7.04 26.4 19.36
1104 1 8.8 24.64 19.36
1105 1 7.04 24.64 21.12
1106 1 8.8 26.4 21.12
1107 1 7.04 26.4 22.88
1108 1 8.8 24.64 22.88
1109 1 7.04 24.64 24.64
1110 1 8.8 26.4 24.64
1111 1 7.04 26.4 26.4
1112 1 8.8 24.64 26.4
1113 1 7.04 24.64 28.16
1114 1 8.8 26.4 28.16
1115 1 7.04 26.4 29.92
1116 1 8.8 24.64 29.92
1117 1 7.04 24.64 31.68
1118 1 8.8 26.4 31.68
1119 1 7.04 26.4 33.44
1120 1 8.8 24.64 33.44
1121 1 7.04 28.16 0.0
1122 1 8.8 29.92 0.0
1123 1 7.04 29.92 1.76
1124 1 8.8 28.16 1.76
1125 1 7.04 28.16 3.52
1126 1 8.8 29.92 3.52
1127 1 7.04 29.92 5.28
1128 1 8.8 28.16 5.28
1129 1 7.04 28.16 7.04
1130 1 8.8 29.92 7.04
1131 1 7.04 29.92 8.8
1132 1 8.8 28.16 8.8
1133 1 7.04 28.16 10.56
1134 1 8.8 29.92 10.56
1135 1 7.04 29.92 12.32
1136 1 8.8 28.16 12.32
1137 1 7.04 28.16 14.08
1138 1 8.8 29.92 14.08
1139 1 7.04 29.92 15.84
1140 1 8.8 28.16 15.84
1141 1 7.04 28.16 17.6
1142 1 8.8 29.92 17.6
1143 1 7.04 29.92 19.36
1144 1 8.8 28.16 19.36
1145 1 7.04 28.16 21.12
1146 1 8.8 29.92 21.12
1147 1 7.04 29.92 22.88
1148 1 8.8 28.16 22.88
1149 1 7.04 28.16 24.64
1150 1 8.8 29.92 24.64
1151 1 7.04 29.92 26.4
1152 1 8.8 28.16 26.4
1153 1 7.04 28.16 28.16
1154 1 8.8 29.92 28.16
1155 1 7.04 29.92 29.92
1156 1 8.8 28.16 29.92
1157 1 7.04 28.16 31.68
1158 1 8.8 29.92 31.68
1159 1 7.04 29.92 33.44
1160 1 8.8 28.16 33.44
1161 1 7.04 31.68 0.0
1162 1 8.8 33.44 0.0
1163 1 7.04 33.44 1.76
1164 1 8.8 31.68 1.76
1165 1 7.04 31.68 3.52
1166 1 8.8 33.44 3.52
1167 1 7.04 33.44 5.28
1168 1 8.8 31.68 5.28
1169 1 7.04 31.68 7.04
1170 1 8.8 33.44 7.04
1171 1 7.04 33.44 8.8
1172 1 8.8 31.68 8.8
1173 1 7.04 31.68 10.56
1174 1 8.8 33.44 10.56
1175 1 7.04 33.44 12.32
1176 1 8.8 31.68 12.32
1177 1 7.04 31.68 14.08
1178 1 8.8 33.44 14.08
1179 1 7.04 33.44 15.84
1180 1 8.8 31.68 15.84
1181 1 7.04 31.68 17.6
1182 1 8.8 33.44 17.6
1183 1 7.04 33.44 19.36
1184 1 8.8 31.68 19.36
1185 1 7.04 31.68 21.12
1186 1 8.8 33.44 21.12
1187 1 7.04 33.44 22.88
1188 1 8.8 31.68 22.88
1189 1 7.04 31.68 24.64
1190 1 8.8 33.44 24.64
1191 1 7.04 33.44 26.4
1192 1 8.8 31.68 26.4
1193 1 7.04 31.68 28.16
1194 1 8.8 33.44 28.16
1195 1 7.04 33.44 29.92
1196 1 8.8 31.68 29.92
1197 1 7.04 31.68 31.68
1198 1 8.8 33.44 31.68
1199 1 7.04 33.44 33.44
1200 1 8.8 31.68 33.44
1201 1 10.56 0.0 0.0
1202 1 12.32 1.76 0.0
1203 1 10.56 1.76 1.76
1204 1 12.32 0.0 1.76
1205 1 10.56 0.0 3.52
1206 1 12.32 1.76 3.52
1207 1 10.56 1.76 5.28
1208 1 12.32 0.0 5.28
1209 1 10.56 0.0 7.04
1210 1 12.32 1.76 7.04
1211 1 10.56 1.76 8.8
1212 1 12.32 0.0 8.8
1213 1 10.56 0.0 10.56
1214 1 12.32 1.76 10.56
1215 1 10.56 1.76 12.32
1216 1 12.32 0.0 12.32
1217 1 10.56 0.0 14.08
1218 1 12.32 1.76 14.08
1219 1 10.56 1.76 15.84
1220 1 12.32 0.0 15.84
1221 1 10.56 0.0 17.6
1222 1 12.32 1.76 17.6
1223 1 10.56 1.76 19.36
1224 1 12.32 0.0 19.36
1225 1 10.56 0.0 21.12
1226 1 12.32 1.76 21.12
1227 1 10.56 1.76 22.88
1228 1 12.32 0.0 22.88
1229 1 10.56 0.0 24.64
1230 1 12.32 1.76 24.64
1231 1 10.56 1.76 26.4
1232 1 12.32 0.0 26.4
1233 1 10.56 0.0 28.16
1234 1 12.32 1.76 28.16
1235 1 10.56 1.76 29.92
1236 1 12.32 0.0 29.92
1237 1 10.56 0.0 31.68
1238 1 12.32 1.76 31.68
1239 1 10.56 1.76 33.44
1240 1 12.32 0.0 33.44
1241 1 10.56 3.52 0.0
1242 1 12.32 5.28 0.0
1243 1 10.56 5.28 1.76
1244 1 12.32 3.52 1.76
1245 1 10.56 3.52 3.52
1246 1 12.32 5.28 3.52
1247 1 10.56 5.28 5.28
1248 1 12.32 3.52 5.28
1249 1 10.56 3.52 7.04
1250 1 12.32 5.28 7.04
1251 1 10.56 5.28 8.8
1252 1 12.32 3.52 8.8
1253 1 10.56 3.52 10.56
1254 1 12.32 5.28 10.56
1255 1 10.56 5.28 12.32
1256 1 12.32 3.52 12.32
1257 1 10.56 3.52 14.08
1258 1 12.32 5.28 14.08
1259 1 10.56 5.28 15.84
1260 1 12.32 3.52 15.84
1261 1 10.56 3.52 17.6
1262 1 12.32 5.28 17.6
1263 1 10.56 5.28 19.36
1264 1 12.32 3.52 19.36
1265 1 10.56 3.52 21.12
1266 1 12.32 5.28 21.12
1267 1 10.56 5.28 22.88
1268 1 12.32 3.52 22.88
1269 1 10.56 3.52 24.64
1270 1 12.32 5.28 24.64
1271 1 10.56 5.28 26.4
1272 1 12.32 3.52 26.4
1273 1 10.56 3.52 28.16
1274 1 12.32 5.28 28.16
1275 1 10.56 5.28 29.92
1276 1 12.32 3.52 29.92
1277 1 10.56 3.52 31.68
1278 1 12.32 5.28 31.68
1279 1 10.56 5.28 33.44
1280 1 12.32 3.52 33.44
1281 1 10.56 7.04 0.0
1282 1 12.32 8.8 0.0
1283 1 10.56 8.8 1.76
1284 1 12.32 7.04 1.76
1285 1 10.56 7.04 3.52
1286 1 12.32 8.8 3.52
1287 1 10.56 8.8 5.28
1288 1 12.32 7.04 5.28
1289 1 10.56 7.04 7.04
1290 1 12.32 8.8 7.04
1291 1 10.56 8.8 8.8
1292 1 12.32 7.04 8.8
1293 1 10.56 7.04 10.56
1294 1 12.32 8.8 10.56
1295 1 10.56 8.8 12.32
1296 1 12.32 7.04 12.32
1297 1 10.56 7.04 14.08
1298 1 12.32 8.8 14.08
1299 1 10.56 8.8 15.84
1300 1 12.32 7.04 15.84
1301 1 10.56 7.04 17.6
1302 1 12.32 8.8 17.6
1303 1 10.56 8.8 19.36
1304 1 12.32 7.04 19.36
1305 1 10.56 7.04 21.12
1306 1 12.32 8.8 21.12
1307 1 10.56 8.8 22.88
1308 1 12.32 7.04 22.88
1309 1 10.56 7.04 24.64
1310 1 12.32 8.8 24.64
1311 1 10.56 8.8 26.4
1312 1 12.32 7.04 26.4
1313 1 10.56 7.04 28.16
1314 1 12.32 8.8 28.16
1315 1 10.56 8.8 29.92
1316 1 12.32 7.04 29.92
1317 1 10.56 7.04 31.68
1318 1 12.32 8.8 31.68
1319 1 10.56 8.8 33.44
1320 1 12.32 7.04 33.44
1321 1 10.56 10.56 0.0
1322 1 12.32 12.32 0.0
1323 1 10.56 12.32 1.76
1324 1 12.32 10.56 1.76
1325 1 10.56 10.56 3.52
1326 1 12.32 12.32 3.52
1327 1 10.56 12.32 5.28
1328 1 12.32 10.56 5.28
1329 1 10.56 10.56 7.04
1330 1 12.32 12.32 7.04
1331 1 10.56 12.32 8.8
1332 1 12.32 10.56 8.8
1333 1 10.56 10.56 10.56
1334 1 12.32 12.32 10.56
1335 1 10.56 12.32 12.32
1336 1 12.32 10.56 12.32
1337 1 10.56 10.56 14.08
1338 1 12.32 12.32 14.08
1339 1 10.56 12.32 15.84
1340 1 12.32 10.56 15.84
1341 1 10.56 10.56 17.6
1342 1 12.32 12.32 17.6
1343 1 10.56 12.32 19.36
1344 1 12.32 10.56 19.36
1345 1 10.56 10.56 21.12
1346 1 12.32 12.32 21.12
1347 1 10.56 12.32 22.88
1348 1 12.32 10.56 22.88
1349 1 10.56 10.56 24.64
1350 1 12.32 12.32 24.64
1351 1 10.56 12.32 26.4
1352 1 12.32 10.56 26.4
1353 1 10.56 10.56 28.16
1354 1 12.32 12.32 28.16
1355 1 10.56 12.32 29.92
1356 1 12.32 10.56 29.92
1357 1 10.56 10.56 31.68
1358 1 12.32 12.32 31.68
1359 1 10.56 12.32 33.44
1360 1 12.32 10.56 33.44