LAMMPS Description

2440 atoms
2 atom types

0.0 77.0 xlo xhi
0.0 21.66 ylo yhi
0.0 21.66 zlo zhi

Masses

1 63.55
2 107.87

Atoms # atomic

1 1 0.017843397466398146 21.647505597528674 0.03670790588108953
2 1 1.8022816278156926 1.804420055806453 21.620843431994917
3 1 0.028674857749185465 1.8273284951277033 1.7828385019614548
4 1 1.7897326402405374 21.630652233369485 1.7924875273380154
5 1 0.006777252067941444 0.03967208525222719 3.606558364461539
6 1 1.7806815480324594 1.7754608033185089 3.607781305348229
7 1 0.0051143712762484325 1.769934510948729 5.392471954939974
8 1 1.795882922517112 0.03712682617147801 5.415347354615915
9 1 0.0249982165697593 0.023632524158085193 7.2516602174271885
10 1 1.7812203758036997 1.8102426515591308 7.186504302034997
11 1 0.0017434527473837614 1.8038838108167834 8.986522788801713
12 1 1.8001096051095618 0.041334989856497736 9.016446832178058
13 1 0.00532365766826192 0.026706376324895212 10.792013049945128
14 1 1.804962639448551 1.8070857352539977 10.792240402701124
15 1 0.02219577527728981 1.8267650346016573 12.66393128485311
16 1 1.7891694471243982 21.64145503180076 12.60201846172237
17 1 0.006699357867499133 0.02979980826854063 14.46819740275267
18 1 1.8126071085245212 1.8413927775509602 14.416069698020381
19 1 0.03286250599251472 1.801211302854414 16.274600692183625
20 1 1.8162939502550826 21.63272790033173 16.278138836490452
21 1 0.037640185845582354 21.64223786479639 18.053964199503994
22 1 1.7687761286543322 1.8222524009476249 18.03531890791889
23 1 0.011220014364714039 1.8072302623894048 19.89437906574911
24 1 1.7997384821492273 0.019589979255911164 19.891830450964054
25 1 0.01468171562491468 3.6417873791177247 21.638192323358453
26 1 1.8019702862457294 5.434424372836693 0.03797103942314794
27 1 0.013079055113067154 5.383870841336732 1.7771778714440047
28 1 1.7993336054978701 3.609946189967548 1.8421904985185469
29 1 0.014314680022368458 3.5783798670574383 3.5909682246217907
30 1 1.815242310314297 5.412019967419041 3.6496990320543174
31 1 0.03472718391437497 5.425487101676358 5.4303206593558135
32 1 1.8284627953739545 3.6219287490277905 5.382761157815119
33 1 0.03654293341694751 3.6215821772285115 7.236109003727338
34 1 1.799600198467969 5.4114846860299455 7.178670875515938
35 1 0.010205125906415943 5.4350414864241765 9.055566457654734
36 1 1.804408228271551 3.606282923552584 9.066261817754748
37 1 0.009412595591805201 3.57790143151785 10.804520186284368
38 1 1.8178950624651122 5.420750625207233 10.872510395397834
39 1 0.008657639589116393 5.407366261905578 12.590705034837338
40 1 1.7857857533489434 3.596425137056774 12.603181670480062
41 1 0.031847672309899766 3.602779849550666 14.413579130335116
42 1 1.8365015450842084 5.394772483414321 14.457818024398861
43 1 0.009895016939460238 5.4236680222158125 16.20361951076837
44 1 1.8315931282731235 3.613460699272989 16.27590935620557
45 1 0.03239702760507842 3.586747407454364 18.051686900204142
46 1 1.7711701401683788 5.393728013361213 18.05519317676937
47 1 0.012116562195586251 5.375050922651688 19.860957254709614
48 1 1.7765015285118813 3.6068868017258917 19.885500336655777
49 1 0.030037045260691314 7.191179007482955 21.65471729380444
50 1 1.810505604594412 9.020289988161606 0.040336088962943085
51 1 0.019289561725894678 9.018617448022178 1.7687144391197074
52 1 1.8357690925339263 7.193906687855312 1.812609038167079
53 1 0.001876877059877002 7.236053796864315 3.5744016571537047
54 1 1.790676189176206 9.00174258082241 3.575839703154803
55 1 0.020503745583255087 9.042752359643098 5.444988703796014
56 1 1.7943111272954821 7.223841356894895 5.455855197409495
57 1 0.012435356670774096 7.227737471175302 7.179856793091033
58 1 1.7892810646843034 8.994202518066347 7.243452648982895
59 1 0.0071773517107902975 9.058520884928999 9.043942416684787
60 1 1.8266640240104566 7.232992355884602 9.053200707632136
61 1 0.007658916978822944 7.201338864416803 10.866740797867799
62 1 1.7951828740905083 9.062522367884915 10.840417974881843
63 1 0.025200467889080428 9.043069543000223 12.60884929832462
64 1 1.8157332598662763 7.243820566000761 12.602751303771612
65 1 0.015669100237932214 7.211033198832932 14.401287959620994
66 1 1.789955224825755 9.054879319368773 14.46433458117651
67 1 0.0041783078685187335 9.019181319958467 16.203168990962748
68 1 1.7709509518598727 7.2047215673650555 16.227836205951622
69 1 0.024772630361844766 7.230775383970726 18.017751530086038
70 1 1.7804498662010901 9.053686935939881 18.041335347627186
71 1 0.0001651831851472846 9.025181473360574 19.895138740987505
72 1 1.805617781905011 7.222435951969724 19.818284407270937
73 1 0.025460733975279662 10.821333756209741 0.028441884354956357
74 1 1.8071896539864685 12.614195477139845 0.0367641845870638
75 1 0.006413071297375119 12.59934800914056 1.8241955255216606
76 1 1.8050896870623585 10.828710167187598 1.844907205435561
77 1 0.010271168668124483 10.821293601094728 3.6503984300105596
78 1 1.8144122676453491 12.67406088390446 3.623862018517513
79 1 0.009820252291333468 12.663931125356452 5.380285526805663
80 1 1.81307737469206 10.838679933845 5.449085864922309
81 1 0.0023761931663550547 10.83085916405443 7.176357877199197
82 1 1.839055764765915 12.636353375185818 7.2522083956466625
83 1 0.0006380122432033078 12.627042034518709 8.985419224716255
84 1 1.767552860975888 10.826313668151649 9.038644339348087
85 1 0.030695796948923194 10.851186689134803 10.843800194843645
86 1 1.822030796279024 12.59937096072486 10.848267946510708
87 1 0.007840065024629861 12.617402524099752 12.670774689947315
88 1 1.824432339906509 10.828641355493014 12.596202870919614
89 1 0.024898321993870574 10.796133043800388 14.426895497539975
90 1 1.8180685887111727 12.65994245770952 14.46688413711437
91 1 0.017937699407955532 12.61838776776824 16.21535638667288
92 1 1.7843801884711037 10.840843882946501 16.275787387880793
93 1 0.01972382073232647 10.812919939607003 18.020436265416066
94 1 1.7880524827393192 12.637455507340745 18.086653983989596
95 1 0.017626065824913963 12.664935554740492 19.88082923846084
96 1 1.815984118912589 10.844113502174308 19.815717353713367
97 1 0.02268589773115736 14.430273874312572 0.03393542570803333
98 1 1.84254608951536 16.251749368532767 0.0079358137320827
99 1 0.002168410356329644 16.270329681738303 1.836889262027869
100 1 1.829008695033883 14.409027246480296 1.80427773877697
101 1 0.019246797272437766 14.403025698157508 3.5927940700572223
102 1 1.8303511625434128 16.225738366331484 3.5897858488902523
103 1 0.012216672911621292 16.208548244766803 5.399196720067076
104 1 1.7725237753725471 14.451336744770837 5.39428994368397
105 1 0.030664463289352926 14.412386406178282 7.226978855666847
106 1 1.8195708679688054 16.278579025129645 7.237247328691067
107 1 0.012255647289268014 16.260798559417328 8.990118075918163
108 1 1.7911948390920678 14.476840890621093 9.022850310474567
109 1 0.0261276375649333 14.428392833753039 10.861013520114318
110 1 1.8156096292686912 16.285192365154973 10.837486532807235
111 1 0.03860623148126976 16.2584839796456 12.626410877342192
112 1 1.790489911324313 14.451982806953797 12.669939842522403
113 1 0.010508206542392333 14.439839902271801 14.476215173496845
114 1 1.7824799712012096 16.25070711048191 14.404555911562078
115 1 0.0238815854714624 16.268275971083654 16.26915184072452
116 1 1.8358424354776925 14.417582775688498 16.235015558229115
117 1 0.02488023107536516 14.414224308766391 18.036726642183268
118 1 1.8102771772490502 16.24710780021179 18.09111433802172
119 1 0.027376738031856584 16.215765222886347 19.852821667499775
120 1 1.80227107194439 14.458453572554578 19.89034037309448
121 1 0.0003789042121242643 18.042860934744205 0.03977910742554709
122 1 1.8341814805024381 19.88199763446342 21.65045934964721
123 1 0.011383290777292011 19.82120771034622 1.8195104003236828
124 1 1.8060827138991038 18.049716341088363 1.7637042578815918
125 1 0.015853521134670957 18.08506028827546 3.6319744881916645
126 1 1.8121416800074603 19.883727952615747 3.581337778421327
127 1 0.011209743951152741 19.893354820587543 5.4347321590672095
128 1 1.8133622905439042 18.023279438206472 5.381658165967737
129 1 0.004060952878541089 18.08851442284635 7.225245492900642
130 1 1.8002538296854613 19.85795964170132 7.1789622113281295
131 1 0.00044695617467212185 19.879168586760024 9.056198739421136
132 1 1.8388267841440826 18.06136408066595 9.014212015555596
133 1 0.00047375497178460147 18.0604601739346 10.790058517990955
134 1 1.7846805701338804 19.89275386463754 10.827959236284906
135 1 0.01071857680943264 19.82111331175755 12.616774607590857
136 1 1.7683723319805487 18.029504621795592 12.62859549150115
137 1 0.004312468668060801 18.04467755076837 14.400295505633101
138 1 1.814687617433984 19.84180147829309 14.477272546471841
139 1 0.022570448600094464 19.822591234123045 16.262416350581795
140 1 1.8215296835286756 18.076470719965428 16.270589010286567
141 1 0.03193047768852409 18.055280107200062 18.02361857319555
142 1 1.8330847137619644 19.836022419939187 18.070597618932776
143 1 0.022671408057253324 19.82195774156144 19.846963119790455
144 1 1.7987816387383049 18.07006767185627 19.89056820962073
145 1 3.637985862578089 21.632214125902898 0.003872219809117538
146 1 5.420222671526405 1.7840113290523982 0.034958802546243256
147 1 3.6291475988538173 1.7938500298571298 1.7698998828956591
148 1 5.423879182157092 0.0033498034245897277 1.845057369547997
149 1 3.6236623702392334 21.62691110113803 3.592653608269941
150 1 5.424781413978705 1.8038448337081323 3.5696838874408963
151 1 3.6318743404726614 1.7737111994914894 5.4300699596604165
152 1 5.400575433433378 0.007488142830288565 5.450152477042042
153 1 3.582514120531376 0.01638043609099252 7.247236429399419
154 1 5.38235759903489 1.8308068237137949 7.230851929188102
155 1 3.6353145079383404 1.8309881129787369 9.007059716741901
156 1 5.412559641999745 0.01848475607622804 8.98923060366013
157 1 3.5767148783497955 21.652473520583243 10.844330627415431
158 1 5.402403150666709 1.8366610417079943 10.803663487720474
159 1 3.5818961611740554 1.7738891006288378 12.643234480587504
160 1 5.417560951070847 0.020029317636470378 12.673092916099538
161 1 3.6102840597990293 0.0004208458265804534 14.48063610059632
162 1 5.424795192986715 1.8164629919511126 14.479681176938769
163 1 3.594868307150803 1.8263269696682665 16.278085756010046
164 1 5.392441859457921 21.634965782727456 16.263642891168534
165 1 3.6382592449651727 21.656724265180046 18.07129750972754
166 1 5.397683356735852 1.806307016725782 18.008675041307047
167 1 3.622008897952523 1.783637182532827 19.820625641117605
168 1 5.429868823899725 0.003410264732440355 19.895302948843696
169 1 3.5930847559778147 3.6254425448953707 0.030261336797450335
170 1 5.404581776650216 5.415748008724937 21.622867579816745
171 1 3.609465441518841 5.444168096948353 1.831756713234292
172 1 5.40677338190415 3.577570643901219 1.8277762708864844
173 1 3.572560476405718 3.5977570696303944 3.5891266764114613
174 1 5.392888522863304 5.438903460425013 3.6336654798120844
175 1 3.602569356292971 5.417561571241292 5.456412536507851
176 1 5.416715527071014 3.63496486657492 5.383721148848823
177 1 3.6199608781967636 3.6155912242346457 7.25950332935901
178 1 5.413062834651635 5.416585860569438 7.262224306271136
179 1 3.6475796091404993 5.398442648495779 9.01313741122006
180 1 5.423951584012233 3.6169585588704534 9.0653082265132
181 1 3.5921310693232287 3.634878034555329 10.85534615296528
182 1 5.4353173059098205 5.418228973510602 10.863541016513027
183 1 3.596530120996581 5.448148587787912 12.648527627953587
184 1 5.397142197311446 3.5705088116234394 12.64035543134308
185 1 3.6110391117222607 3.610342567042516 14.400763011711355
186 1 5.387128403122966 5.436102360921127 14.420026997319072
187 1 3.5976593431071415 5.376301194297536 16.2362554220499
188 1 5.4147176184185595 3.6180641213745965 16.28365702836729
189 1 3.61838461200205 3.6324484388556124 18.085494625149035
190 1 5.379054253804616 5.437597246070068 18.05671511975227
191 1 3.6119976499752937 5.399402977809226 19.896125488326067
192 1 5.454122231708522 3.5979051693214172 19.852745827732594
193 1 3.640291814041651 7.236835361590034 0.018902890895944102
194 1 5.4182154100681 9.03696691099168 21.619240890047628
195 1 3.5872975553031723 9.016775711754436 1.77124318672393
196 1 5.3813179803175135 7.227040313846494 1.7762048495207938
197 1 3.609007429041181 7.221092721739373 3.6550925718293064
198 1 5.397531587028699 9.019384241967062 3.5746392245817624
199 1 3.599609344463694 9.06281583427524 5.403638615188337
200 1 5.415166356485036 7.216957539183315 5.370291582852335
201 1 3.6479694342078495 7.232662221130777 7.2247566736063416
202 1 5.445099258265775 9.037265807863381 7.243492774090808
203 1 3.611825957967016 9.04098403651308 9.062457416462456
204 1 5.407302454699065 7.181910842381057 9.035750480200472
205 1 3.5907533735631967 7.23641621443577 10.862420093704337
206 1 5.422734751421588 9.00439613887401 10.802027657999496
207 1 3.6407235471886765 9.039292689817945 12.611683273677631
208 1 5.401088580575109 7.212567842096131 12.672604942777852
209 1 3.638238795397068 7.219895491227062 14.470570259524365
210 1 5.44400855382564 9.008122152067992 14.420727525417679
211 1 3.6266950912081883 9.0462815296254 16.27654689096602
212 1 5.4547600858086485 7.2214771365906785 16.260199143859168
213 1 3.644768804008853 7.199239394927353 18.043545713140528
214 1 5.418022570620038 9.042638974595231 18.01459648288845
215 1 3.571926784024926 9.022553884441734 19.84190102348365
216 1 5.41025303751949 7.220121315723168 19.897955950461697
217 1 3.6345847816521406 10.79952224095463 21.646211733535345
218 1 5.436882892195555 12.613903458570082 21.634575495356554
219 1 3.5741903236366483 12.6439739760239 1.7885254415464125
220 1 5.407648931746621 10.82901577543908 1.768919258419276
221 1 3.5936677142456266 10.81463559237654 3.6403660342036503
222 1 5.417364888664385 12.635063741217598 3.568171195370667
223 1 3.607027854337176 12.667163812856831 5.391990083795826
224 1 5.411626499096655 10.868816430482784 5.438353241813365
225 1 3.592189838731813 10.846691515348226 7.185663761784085
226 1 5.42994828310428 12.668626469137397 7.239990926035416
227 1 3.583824331953505 12.655192507939518 9.041132402403823
228 1 5.418353956757985 10.819184010918198 9.062655853882154
229 1 3.6459755280702817 10.804886800528953 10.833527148104242
230 1 5.451423163064181 12.621422254522344 10.809815316798902
231 1 3.5820149479403853 12.661572856027297 12.640989104364811
232 1 5.397144547719103 10.854778722336485 12.603169491765609
233 1 3.6242742560060575 10.853399633160777 14.407449210435075
234 1 5.419690354569435 12.619777845934081 14.47776845766968
235 1 3.6483744481877727 12.634349667745084 16.23325529283711
236 1 5.384301676416491 10.826182934063675 16.271079597878327
237 1 3.6417806104605144 10.829652454128164 18.0703165976435
238 1 5.434959114062854 12.608003476348241 18.02885274516337
239 1 3.6078095832710235 12.649237278799495 19.812735568744692
240 1 5.416856462728932 10.812799495710381 19.81908923090206
241 1 3.6338462551503308 14.425925540028453 21.63245609217942
242 1 5.393952797145835 16.255250327664058 0.03965362064103097
243 1 3.613970307601246 16.205851493388806 1.8152350702376523
244 1 5.408543499290552 14.434451169847385 1.8467645642253336
245 1 3.6033146987007956 14.443306212269313 3.649067225380811
246 1 5.38059774815733 16.261587768664345 3.628022013920571
247 1 3.605148916924946 16.240308669841827 5.457356059429373
248 1 5.411771117315811 14.430062388805473 5.461016317734554
249 1 3.623938616645325 14.43226592671524 7.185047826107035
250 1 5.430424256428023 16.265266798015084 7.254190077457107
251 1 3.612740805151505 16.269249638107247 9.060742304948535
252 1 5.427391606182365 14.427512743338992 8.987071539011254
253 1 3.625355570194936 14.477315723300382 10.824879390326776
254 1 5.446719238823308 16.262061772540825 10.848277940467801
255 1 3.6130206936478224 16.25012483166467 12.676981894324342
256 1 5.394980008942967 14.462169743586884 12.610331021596664
257 1 3.5839784764779425 14.473101540886647 14.444770494985846
258 1 5.407603483506178 16.21906701526349 14.46817465440507
259 1 3.58344989479243 16.271754696767562 16.22691645304301
260 1 5.438726321276223 14.40893511592882 16.251080120019783
261 1 3.6177091715876357 14.43259486060114 18.08805414406122
262 1 5.392018993737909 16.27151692416846 18.025349814292493
263 1 3.60072701245777 16.251366613918417 19.814767501346278
264 1 5.418327110215932 14.479644014255713 19.844163102918486
265 1 3.6062937040285896 18.051266278912472 0.03905405196222779
266 1 5.39632356209057 19.846044860974857 21.62615998875664
267 1 3.5932679494589514 19.88496519882785 1.7935013435751408
268 1 5.408977794305848 18.03941523331045 1.7654242322553102
269 1 3.5995724905090745 18.060365754875452 3.570280410778074
270 1 5.406120228980461 19.816613382574705 3.6259924662241265
271 1 3.6228923160790556 19.87632007383464 5.442531230342264
272 1 5.439947577831235 18.075010208534035 5.397802028884064
273 1 3.6423992004048777 18.068273993964166 7.235281329734758
274 1 5.396699785440228 19.872800625165567 7.2531309645171005
275 1 3.5802871039707074 19.861714004167684 8.999608521853304
276 1 5.424682592385594 18.019414883701703 9.000955710527405
277 1 3.594166807979604 18.07832955726696 10.851733124997226
278 1 5.408487840501027 19.822249451854365 10.8547009507732
279 1 3.6341807134732806 19.866868488535818 12.60379531815937
280 1 5.4278703832615225 18.084246129658027 12.611214924198347
281 1 3.591932858809475 18.033420379083502 14.405020750622384
282 1 5.427905485254476 19.81467364522144 14.444771564344041
283 1 3.620324679279164 19.862755731926995 16.20466951055612
284 1 5.417336012123333 18.047416429414646 16.28878472706477
285 1 3.5905456706484777 18.043209791816317 18.010011433640415
286 1 5.4348605625925925 19.82230049785292 18.035967505575158
287 1 3.6109212322477084 19.834264089956843 19.8196592868257
288 1 5.418431190988725 18.05669772734097 19.8160067346297
289 1 7.215625757985605 0.015106477504117154 21.622950279132098
290 1 9.02790365906511 1.8199245202510894 21.620275491730577
291 1 7.2082951038171235 1.8193527413143336 1.840579936184238
292 1 9.025430740755546 21.656393637567728 1.8485462400002401
293 1 7.211139582858799 21.652982524119544 3.573753312607108
294 1 9.04328469434445 1.7759676521731824 3.633611133655529
295 1 7.227875580648823 1.808004753555601 5.377310361807583
296 1 9.03714306647685 21.635578171987547 5.44144566780808
297 1 7.192221354594329 21.659330103304562 7.248150426185981
298 1 9.048347101872363 1.7874096884073938 7.18992480148606
299 1 7.1998988756138695 1.771673120921765 9.0242811434447
300 1 9.0316967332434 0.013778975696110068 8.98045472842995
301 1 7.246723235130675 21.63140950935202 10.840063574858785
302 1 9.000473314508707 1.7720463454056776 10.83576149845187
303 1 7.220598288081699 1.8449048346995442 12.623740545080855
304 1 8.993622616589704 0.005271167452709617 12.613161285458036
305 1 7.184579747946368 0.007049760011739243 14.452435278139912
306 1 9.02395408318706 1.7804901123319032 14.406671140012682
307 1 7.210994130374154 1.7684409055434869 16.23022103212226
308 1 9.04463752807762 0.00802350986122637 16.278057240438628
309 1 7.222095096971445 0.04223757445167077 18.050415921106662
310 1 9.03893074791444 1.8346036920219713 18.07695388136231
311 1 7.181181213511056 1.814637405756224 19.865955128671565
312 1 8.999049300093832 21.634996975478476 19.836384763415687
313 1 7.180390697065086 3.604615025590446 21.658933346438054
314 1 9.013832348390793 5.414034572259513 0.04443276651206578
315 1 7.2225202532370085 5.417690702907461 1.7608376879336811
316 1 8.987184540911258 3.6018869350490412 1.8242914728341246
317 1 7.192275225634698 3.624403431038218 3.5855264087275804
318 1 9.054106327506947 5.422699043082438 3.646406967975193
319 1 7.209115645059031 5.445032258160609 5.443060512502477
320 1 8.998479557513464 3.640080437958493 5.429007654523428
321 1 7.217391420434766 3.6236975442702173 7.257877816504823
322 1 9.032671784938405 5.427890790141275 7.1802821109641295
323 1 7.257467064984083 5.409259882535184 9.012848974823157
324 1 9.06486837346866 3.601680045703066 9.03226097751124
325 1 7.207174868418213 3.614360936891523 10.790257976534061
326 1 9.001615901287293 5.4428213709063655 10.815281374802984
327 1 7.181641547138213 5.426939785696461 12.643489088866293
328 1 9.010682836452236 3.6110625296934082 12.59933512687371
329 1 7.219727948848875 3.6255883493552554 14.401075053257006
330 1 9.012097034516573 5.387613539580566 14.46629134707348
331 1 7.2365125100684855 5.377091341939677 16.246050262592707
332 1 8.99996481181725 3.6025034542771173 16.266696199706328
333 1 7.208040254895416 3.6387566467383703 18.02171240009424
334 1 9.065996321340403 5.421710161721643 18.036448235882357
335 1 7.223038033128323 5.404502479016217 19.814283995672014
336 1 9.017419048200214 3.6361619214750363 19.882117338384305
337 1 7.209680325979833 7.22218139926018 0.0382208408656665
338 1 8.981292139083607 9.030270706346807 0.004681252849241806
339 1 7.243957398919961 9.030628884533558 1.7744601947108747
340 1 8.98771238071152 7.233611144578097 1.8125136343066615
341 1 7.2308466850782365 7.231652084149831 3.576971585690318
342 1 9.015410438893726 9.044540574400648 3.647707435881356
343 1 7.202310762391041 9.01539401149185 5.445385428376413
344 1 9.019848082072595 7.205541499896074 5.376658220046921
345 1 7.184494241189596 7.227173762565508 7.238476697554137
346 1 9.043963348802553 9.051925175995676 7.241788765537832
347 1 7.208193410171193 9.060610183999524 9.032516935462075
348 1 9.058809731363592 7.200293482831934 9.035555394217946
349 1 7.1908634293853515 7.203746490691553 10.856618780851559
350 1 9.015931473960924 9.070203744475712 10.831721388197693
351 1 7.243825233436348 9.007929901959569 12.602613917965945
352 1 9.055726760622797 7.231405915265215 12.659378834692175
353 1 7.240669844850754 7.257254635062989 14.423449453558275
354 1 9.01775064275111 9.021803112391565 14.396802792962452
355 1 7.224920839965356 9.023844885499138 16.286183839152372
356 1 8.99971794509507 7.250376494831317 16.258082089126056
357 1 7.220496456917536 7.219181637371088 18.09008703241572
358 1 9.022509705482612 9.008729396314154 18.087304626461513
359 1 7.22772803080248 9.045495885000937 19.82561844249111
360 1 9.036370250020488 7.227535977208057 19.812161529258685
361 1 7.223583337095165 10.829980574198347 21.619141811925793
362 1 9.019392925867951 12.651103236104138 0.03698718799246287
363 1 7.189351837086644 12.606308025190755 1.8188404060033398
364 1 8.986761010801912 10.812840651237888 1.810261646827204
365 1 7.2107582606485705 10.813460540793008 3.5723871853464493
366 1 9.036483255255495 12.635311224543585 3.6470611468687406
367 1 7.209860183963065 12.62382560161576 5.452003228240366
368 1 9.008431139785767 10.804276219723414 5.388902113030007
369 1 7.257725190337667 10.834031765923426 7.2355208631599055
370 1 9.040697840665004 12.61352558963667 7.243961954198421
371 1 7.193267685023163 12.620721420533327 9.05611661013676
372 1 9.055922866571622 10.819989204259173 8.999689423248778
373 1 7.236202022816774 10.800699139547628 10.805833403959113
374 1 9.00837895677241 12.60197370052321 10.817125308555479
375 1 7.216624756845452 12.594002678409053 12.644577496594515
376 1 9.046466657447587 10.835605160982318 12.603903688029218
377 1 7.219284113666804 10.82894250232334 14.402093825537367
378 1 9.01632860901947 12.631848874782703 14.403390434134753
379 1 7.224665758500945 12.617739361821561 16.209569734634517
380 1 9.04922435201534 10.847500994226165 16.218824242627573
381 1 7.221570697548097 10.82484463967728 18.092407268193863
382 1 9.005091604362644 12.601352397409574 18.034219826889444
383 1 7.235874134046872 12.664467085726553 19.880733493232263
384 1 9.00993977803095 10.86573795748946 19.866589724373004
385 1 7.184236012692705 14.458926792490344 0.004658576646888338
386 1 9.001194455433852 16.277216022786817 21.651792803333986
387 1 7.257367742924923 16.269027519983606 1.806875973308766
388 1 9.022434159330098 14.453758640089589 1.842664706158895
389 1 7.253598886546897 14.428971822885522 3.618664235084225
390 1 9.028082360450707 16.24354255936932 3.649115682610164
391 1 7.197907194259743 16.208281028386867 5.412112534037058
392 1 9.024705842378028 14.42401667096973 5.377594759096122
393 1 7.25671990595988 14.454446101743914 7.227171845072018
394 1 9.036411910171267 16.211023688485405 7.243083783969709
395 1 7.187084244751357 16.218912006254964 9.023935403592317
396 1 9.017261385611468 14.39974175754625 9.021795039652662
397 1 7.2207827709195245 14.441598222474218 10.791573548950094
398 1 9.012518248924327 16.22019058115619 10.860306065977358
399 1 7.23538244936531 16.20752610484255 12.627164954993193
400 1 8.998892951003661 14.460851215110873 12.656212035018697
401 1 7.2178524288938855 14.464344275770591 14.474126570158518
402 1 9.05890067508371 16.267590752433442 14.428360146922444
403 1 7.1828386659142405 16.25677892550381 16.229118712526883
404 1 9.013491734965617 14.462221287838776 16.206488108271483
405 1 7.233745726679959 14.465517634227766 18.07935697129545
406 1 9.013488831217808 16.28754621523697 18.0471722182448
407 1 7.19091949427768 16.24136109067951 19.823475381633216
408 1 9.043619311793146 14.45534662855905 19.82032750430781
409 1 7.227547863910629 18.054723185641148 0.03543825789753109
410 1 9.049309213613382 19.838606441433047 0.02922105916132164
411 1 7.215854716179747 19.857962150318023 1.7670177616959422
412 1 9.02726251303375 18.05303448482393 1.7637738547454178
413 1 7.217842168139259 18.03499912892298 3.647289820699639
414 1 9.026790491824455 19.82460168279632 3.584500732218987
415 1 7.228458724473809 19.845970653272655 5.374883781168895
416 1 9.0194402767703 18.02752307074202 5.382423487398253
417 1 7.183842176892536 18.03106959945377 7.210862865546645
418 1 9.03629146608306 19.893340092725207 7.197247593216982
419 1 7.209412348929617 19.828495407101844 9.059547896914422
420 1 9.008966706129375 18.07636054546034 8.99457231126164
421 1 7.222952315946983 18.011908158733323 10.848503056955597
422 1 9.027375604612276 19.88949929941551 10.800071975331457
423 1 7.203727792622546 19.85590793852192 12.672388602988654
424 1 9.007530539897548 18.088604307523934 12.64418226224072
425 1 7.22918520242584 18.032371317043793 14.4028244667467
426 1 9.051141414648844 19.88304652523806 14.458057992208731
427 1 7.220736584751867 19.86474219701699 16.283862087977525
428 1 9.052384266548783 18.028545963413453 16.266750831074315
429 1 7.220125445203347 18.05780629803565 18.007298184818538
430 1 9.031692084048887 19.86815287547804 18.08852096412948
431 1 7.2114599867838125 19.857546588733438 19.89482564886694
432 1 9.02817635325454 18.044034043245407 19.895211395847927
433 1 10.800894729764327 21.63462076959374 0.018170066905541297
434 1 12.611841474803535 1.8104630507576611 21.626647491079463
435 1 10.795310630477383 1.7853377769203096 1.8159730568774284
436 1 12.61405403381805 21.657478170876345 1.768886280145537
437 1 10.842721279043445 21.62703495089194 3.601165685642401
438 1 12.634206372428888 1.7748765489976768 3.5778779517546724
439 1 10.839879552743408 1.796817523199314 5.453857212773031
440 1 12.607693632989077 21.64408059907856 5.443935363664652
441 1 10.85333273121358 21.641189114635587 7.251131598031608
442 1 12.645583197547143 1.8090198386881806 7.262219383354988
443 1 10.787916260916024 1.8119383483648088 9.014145461224588
444 1 12.675771925336937 21.656505226006768 9.012739961657612
445 1 10.829920481540208 21.659793158658868 10.870878079912163
446 1 12.641099404059606 1.7953678884396171 10.787800719986285
447 1 10.867456889671553 1.7935428655432908 12.647460756792084
448 1 12.657790767557866 0.02221990807751938 12.60495656215127
449 1 10.817249552072331 0.036605122596559195 14.464443779747196
450 1 12.667985068222091 1.817167627158761 14.415461358059549
451 1 10.821427723221994 1.815058991014868 16.2828115612439
452 1 12.617314493123722 0.018887202388377284 16.279552161790456
453 1 10.837818801702396 0.015726240685492526 18.087080428102766
454 1 12.678993556367306 1.7930862374918703 18.051739341855612
455 1 10.794966875135476 1.7821176013195914 19.859285578403014
456 1 12.623241691243226 21.645856457568257 19.89103896584427
457 1 10.838633967298223 3.638497672239585 0.025742501666542125
458 1 12.644632359581799 5.429833759375449 0.03313713835445853
459 1 10.81141951174772 5.445431884257363 1.7854097542144365
460 1 12.629584415520183 3.574954761710743 1.7839136603032844
461 1 10.82856898785352 3.649897767350601 3.6184172145160987
462 1 12.628876781794364 5.42895312664736 3.5768328534466822
463 1 10.846352700986971 5.436486520077811 5.38496149838067
464 1 12.628216123833205 3.651566207758054 5.41333480371211
465 1 10.855750711639567 3.63942308252902 7.223334929940143
466 1 12.607247519556605 5.441838303228453 7.233828673228562
467 1 10.830819297564148 5.415918630393351 9.067139975506567
468 1 12.600592843289759 3.62947604339786 9.019095501732368
469 1 10.840590995707144 3.620590437737434 10.795806700792657
470 1 12.675895905252938 5.420259016553857 10.82743398352035
471 1 10.837216827046207 5.436691416343755 12.669651738169614
472 1 12.63650751436623 3.5973318667447507 12.669066852742988
473 1 10.790509787432388 3.6060434780818786 14.44454943869297
474 1 12.630577281648115 5.428261957782696 14.482914810890609
475 1 10.804417272172241 5.4474315300808716 16.243049119529815
476 1 12.644926149843947 3.5785009140451294 16.266424662057087
477 1 10.860265353888972 3.6168316432038012 18.017714068312046
478 1 12.627114292305382 5.417291103311786 18.01387420850832
479 1 10.853610107407867 5.437904788885475 19.885042737772068
480 1 12.657193560989626 3.641995346335437 19.84886199310935
481 1 10.86226771343113 7.2200525853355595 0.023660675561216545
482 1 12.624520672036837 9.042840434646626 0.03549270556365352
483 1 10.858127886022647 9.0520409140621 1.8115677808234856
484 1 12.640823586019684 7.238777554920562 1.7668535303382322