LAMMPS Description

500 atoms
1 atom types

0.0 18.05 xlo xhi
0.0 18.05 ylo yhi
0.0 18.05 zlo zhi

Masses

1 63.55

Atoms # atomic

1 1 0.07796153242998759 0.0028316812605156186 18.045136598747305
2 1 1.8023357543385217 1.7590775119412723 17.985464074779852
3 1 0.005483134244251695 1.8249297917755918 1.7398129824001836
4 1 1.8114892185259834 0.007143721640064602 1.8764707425249287
5 1 0.01112025103544344 0.004955312058263852 3.6794381299137155
6 1 1.8220499666527548 1.8301500319729556 3.5473204289755653
7 1 0.03482274484900589 1.867981091954298 5.400424734126171
8 1 1.7832136075493057 17.983364760315798 5.423549746613627
9 1 0.030966424747478346 18.024519486917765 7.159683066484914
10 1 1.864137990738727 1.8449322727380084 7.220707431784596
11 1 0.04392082287768813 1.839295139070383 9.06033796924154
12 1 1.8040386548689697 18.047363123197517 9.100286858959691
13 1 0.024988534330834176 18.025782553028087 10.89412310568422
14 1 1.8117173578830723 1.8384413373050459 10.884202438680536
15 1 0.031509624232069516 1.7456291593010969 12.622412830789216
16 1 1.8398955982415102 18.01930437993382 12.586785313212193
17 1 0.06678885074917051 18.02455227962001 14.399141392191959
18 1 1.839723912984553 1.8544497073383772 14.46472210342371
19 1 0.021045542750184196 1.8361324562163255 16.179319613654076
20 1 1.853005330769005 0.035098825395574594 16.21252677005484
21 1 0.01303348590298503 3.683221670027727 0.012094217567555016
22 1 1.8622884073487396 5.441997626802062 0.0035156906387559675
23 1 0.05728486565816864 5.369232314281699 1.823114206623415
24 1 1.8694751532827925 3.601873605460676 1.8370492739941755
25 1 0.03824353767734855 3.5617646324212826 3.6479110933953627
26 1 1.7888925913913967 5.47664620636736 3.600478991559261
27 1 0.06049429184851862 5.3864164443299005 5.4260996757062125
28 1 1.7367165407766554 3.6334817714167293 5.4348876809433175
29 1 0.036444443165192256 3.590797985160774 7.156103262394237
30 1 1.7766147089900028 5.357244041440649 7.241028641203844
31 1 0.048384940087507794 5.421351186825203 8.976656850241644
32 1 1.8570044300181774 3.618721526783303 8.979909607268803
33 1 0.009254276307568695 3.60436825047809 10.757749084147694
34 1 1.812022819556808 5.422645901145388 10.756002517986719
35 1 0.00251014292252965 5.415054320178967 12.702237091808758
36 1 1.8165915154472863 3.5430728837638363 12.62764877110352
37 1 0.07116331363905587 3.606762812452594 14.452977427855636
38 1 1.7752916770505323 5.351086509172786 14.450600160721333
39 1 0.0066387800336142845 5.431169991231195 16.313243932857308
40 1 1.7609050578664136 3.6393300573423586 16.279089293187006
41 1 0.045272194004259726 7.270175875371557 0.016354121795166286
42 1 1.8190190052440043 9.10101564517098 18.043673982102234
43 1 0.0061096990094171326 9.026014320209958 1.875683641002481
44 1 1.8206684901965242 7.185526273787632 1.75573984722381
45 1 0.024282448118501082 7.232220812251063 3.546294310202023
46 1 1.8449667882413745 9.07570018499958 3.6211920481417104
47 1 0.030910970275139397 9.034360677726601 5.352627111270013
48 1 1.7783526900816193 7.24400555631723 5.474512633375393
49 1 0.03434987756170087 7.2688251444014504 7.260828357020509
50 1 1.8265289565613099 8.963488698625852 7.198990180882811
51 1 0.055713899186031667 8.9935733710503 8.993940648048513
52 1 1.8221518974903306 7.202812241927068 9.089090578387498
53 1 0.008767765205112818 7.206385432336228 10.892791029166093
54 1 1.7683126753508835 9.077753524732348 10.820216570710665
55 1 0.006047224831024044 9.01991381538816 12.564779655351044
56 1 1.8441643920460873 7.266293363160193 12.6232657563061
57 1 0.013268702391873723 7.192594001866229 14.500893686910528
58 1 1.8158007681152009 9.087318552351846 14.46402622822796
59 1 0.01932843842158085 9.082247927830075 16.212127631396868
60 1 1.8587793099621615 7.23703247130704 16.20705041408239
61 1 0.03356259083365936 10.776020744970484 18.028891774183943
62 1 1.7369562196158825 12.650965617977798 18.04602982069529
63 1 0.0025110169319163887 12.63197681076533 1.7375311538175267
64 1 1.803082986676676 10.837115966772522 1.737373936753655
65 1 0.04234066682426651 10.851055734837397 3.6699788282359957
66 1 1.7922555339852995 12.644882983412165 3.547475249344856
67 1 0.007538046260457225 12.63985877952647 5.479669947507348
68 1 1.772913763246539 10.77528410422911 5.4347536277508715
69 1 0.035400112538620125 10.858268506310429 7.180438861467869
70 1 1.8636013921434476 12.667504354170836 7.217242035902105
71 1 0.060045470500764773 12.658047721037363 9.047751551597324
72 1 1.7530037839225465 10.818131086545732 9.06845078117332
73 1 0.013928060973700097 10.871667923621768 10.778329710619522
74 1 1.8707911043771628 12.647031355598214 10.860564661012136
75 1 0.056335179466198475 12.617277260698609 12.595127808954729
76 1 1.81941851029954 10.848467581538955 12.696480697652298
77 1 0.05937968260152129 10.802438719258078 14.465007792750017
78 1 1.803482958404811 12.632759232448526 14.369434974547245
79 1 0.047962971579199605 12.595163179921018 16.28402821678298
80 1 1.8706603815270353 10.808165362412401 16.240195054434857
81 1 0.0018838625294090037 14.483448897287051 0.04494085086329519
82 1 1.8074487700847004 16.239312153163855 17.987095972233064
83 1 0.037609204716609564 16.219594453338342 1.8578131649100225
84 1 1.7932574225977207 14.396339255645447 1.7618968330163436
85 1 0.024355737710595658 14.508668748545269 3.613735254356001
86 1 1.8012172954340433 16.275992430889282 3.553221331242607
87 1 0.019661219183587264 16.23713208103693 5.3501154534384625
88 1 1.8457112418956887 14.396899532010684 5.382258784514199
89 1 0.035272147140784936 14.38642337598699 7.188757181264206
90 1 1.7642278043327795 16.241807869695883 7.274140246949701
91 1 0.014344909499606418 16.223569050342842 9.091671755871522
92 1 1.8061113863907972 14.441799146379529 8.953776649060162
93 1 0.04907005380731695 14.4298815532079 10.883647409100252
94 1 1.8152018678010278 16.20872654376472 10.885412923397702
95 1 0.013548058300606436 16.24331268175621 12.563856040951592
96 1 1.8470995735013778 14.450059657999983 12.586024150112758
97 1 0.006640764807890986 14.488608939296311 14.496917825177299
98 1 1.7931362116377483 16.230619659705447 14.503283242745834
99 1 0.002803643643206906 16.193224635745494 16.29544239302571
100 1 1.8231269150814242 14.438166290541865 16.30185150651301
101 1 3.6166198780918735 17.992456011174834 18.007787551397655
102 1 5.468699815860445 1.7872062494658483 0.038824685296296194
103 1 3.56964437552099 1.8368669981603634 1.751147452338388
104 1 5.441561710890587 17.989847432791603 1.7989656273495358
105 1 3.631892885090625 0.02729078767493167 3.671038242696458
106 1 5.4236973684208465 1.7922138273620483 3.5437776422439367
107 1 3.632851481098587 1.7632619520566375 5.468792970123144
108 1 5.449670662985037 17.987415353200184 5.410499885839414
109 1 3.585485245979068 0.003543604027750668 7.153709410745723
110 1 5.385554357248386 1.7772398484179073 7.158836882384648
111 1 3.655250345310837 1.76427020386212 9.052486912706271
112 1 5.397126534809896 18.00963279870819 9.073612184038145
113 1 3.5444141303519734 18.043234449049308 10.851450331179443
114 1 5.466084663158212 1.8471481523598103 10.816114335782741
115 1 3.6060868487811333 1.8102225451411968 12.70443743361088
116 1 5.352546699444792 0.02205424000279701 12.662382296495492
117 1 3.61196275852908 0.004667100754498533 14.509672148902695
118 1 5.419266509835564 1.810797781789909 14.510920154471169
119 1 3.6105777610599668 1.802162876545532 16.174857588026732
120 1 5.414616884014652 0.005560664354700484 16.313155231507974
121 1 3.638686681404907 3.600284944503833 17.98738308492894
122 1 5.438355484309643 5.376900991843264 17.99222652785787
123 1 3.6506549748806014 5.367046723964573 1.7956224864099715
124 1 5.411672903522262 3.5435549010355007 1.7880689371733958
125 1 3.6270629431123496 3.627330818512026 3.545400432332335
126 1 5.4403547160638706 5.408071522943053 3.550776622724043
127 1 3.6052740644285364 5.473172268765924 5.386610102755874
128 1 5.371386626129269 3.6608721976739567 5.39284608109226
129 1 3.601504926051343 3.5988951665734104 7.287829088589147
130 1 5.4647362752985185 5.380531269896841 7.24275588308928
131 1 3.6489733768394776 5.419501887993197 8.970390752105576
132 1 5.454127699202276 3.651299541643753 9.062635801387657
133 1 3.585064358402608 3.626742381111212 10.770755987261333
134 1 5.4739713581827445 5.412627843910705 10.787711713379021
135 1 3.5822368124991666 5.370179790269247 12.596140034747668
136 1 5.41947256853263 3.623596399061737 12.704387656755642
137 1 3.6039213305774145 3.603594710203451 14.511488711984567
138 1 5.46157464134491 5.376831667946897 14.407043868232359
139 1 3.5784755685377734 5.376779163472704 16.191670261213154
140 1 5.41666047628813 3.617550727552201 16.303681775914143
141 1 3.6080631051874583 7.2159380073333 17.977101405444852
142 1 5.402554149648821 9.006855777953604 17.986003574768304
143 1 3.6228043798512672 9.031579621800256 1.875743081690341
144 1 5.353983042994639 7.200316947246669 1.8283845643861767
145 1 3.599377725661007 7.167315422295278 3.5681921162484853
146 1 5.390832690357547 9.009955115942303 3.5436242764031167
147 1 3.617370918686492 9.064526238622562 5.472322698261805
148 1 5.477246717619725 7.201302081593621 5.445478888515273
149 1 3.606097063026452 7.25896922774283 7.271277355599868
150 1 5.478712321364318 9.048000088954462 7.196536719739791
151 1 3.616566495042094 9.048726228634582 9.078674778537989
152 1 5.416324173652686 7.222872843958467 9.094138117197183
153 1 3.5725075327890106 7.174452273380536 10.869928911262498
154 1 5.4196862181612175 9.026518053682901 10.897421889777887
155 1 3.645226758283888 9.040527095046253 12.694753733700587
156 1 5.37775365838732 7.2314039296759365 12.690298009575232
157 1 3.6051318860996417 7.237605866103607 14.502878593395534
158 1 5.427835742469008 9.051153310351548 14.498786967662252
159 1 3.6073569202445643 9.026370544677706 16.31588375867575
160 1 5.429106957560739 7.261453616761324 16.188812053394994
161 1 3.6178563032565854 10.834878016895152 17.979548889505452
162 1 5.393358575554068 12.613533677677928 17.98705697382894
163 1 3.5420856909888485 12.658073815077016 1.8037718155175744
164 1 5.427283094092435 10.870710482138403 1.7568489611209186
165 1 3.6561097276731993 10.793085682723316 3.5773745004276307
166 1 5.355719130413458 12.609116461491654 3.5905323708958026
167 1 3.614014154900101 12.638784673200117 5.348745571201335
168 1 5.406069475037673 10.88736499786449 5.454050415502683
169 1 3.574525465308949 10.808233980712775 7.172200328304527
170 1 5.447741811301185 12.606189414515187 7.274438608261425
171 1 3.587270182834737 12.582427803687573 8.989191572196356
172 1 5.460781542830055 10.77783478546945 9.00982919657981
173 1 3.619252576929339 10.79793638512364 10.889741185933525
174 1 5.471096699754367 12.623587973995248 10.802827324109536
175 1 3.6514109181162695 12.617402097741794 12.695229051283235
176 1 5.360772190090646 10.811027559290041 12.62413912182171
177 1 3.6158837296496347 10.837933081519278 14.37380822983653
178 1 5.4636561087662985 12.669900552530946 14.395469315366874
179 1 3.6113103950264636 12.629843008994797 16.177763590547904
180 1 5.409877115026975 10.874167759743449 16.296111386731287
181 1 3.612482391351206 14.451996000571528 0.07190433810494812
182 1 5.370987562794435 16.289745846775954 18.01876724417996
183 1 3.582826083120447 16.266968117428465 1.750962160253451
184 1 5.428167372874305 14.391999682049716 1.8532331800128228
185 1 3.6047800386328017 14.433842416729641 3.6773634947258205
186 1 5.414600882330794 16.18665443744827 3.5686671496370277
187 1 3.563126481230183 16.226007167123214 5.3643597348041
188 1 5.415418800828624 14.431309822492045 5.353639817704414
189 1 3.634935786246272 14.411050127505005 7.158934614464662
190 1 5.40929149878225 16.22079361003319 7.287306833421558
191 1 3.600047051598011 16.22388716144319 8.954231239077506
192 1 5.365247806539483 14.482667449337985 9.006713663419733
193 1 3.5706573239547725 14.428871793873226 10.88915787406777
194 1 5.430294211029054 16.270096320340993 10.771099359657498
195 1 3.667235939246019 16.23323849898682 12.595459684874001
196 1 5.426803239552031 14.424864063150633 12.702321785570579
197 1 3.5460758055603763 14.448027244015975 14.43745321911616
198 1 5.436876598837227 16.265519324995708 14.386504805172901
199 1 3.5856740867155175 16.309688773065236 16.268327346763726
200 1 5.420646862921901 14.440977423446222 16.175283320020743
201 1 7.157474347133119 0.0026450664261510872 18.01321980957929
202 1 9.03286626340826 1.8157386466014747 17.985982643685055
203 1 7.228416711610895 1.8654203373599694 1.8440799501114746
204 1 8.994249332992336 18.03742789543304 1.739427729073435
205 1 7.209322939021949 0.0506576136019982 3.5703574266094624
206 1 9.055950874942061 1.824160902659598 3.6704383621157812
207 1 7.256255479288273 1.8308018552063974 5.35938755487422
208 1 8.993837096400773 18.020881753477195 5.471861485864824
209 1 7.162850313684194 18.045570769475816 7.183838939806066
210 1 8.96497571950297 1.7749092331817342 7.23378131917479
211 1 7.206799939874412 1.7964657909924644 8.95698749806652
212 1 9.030033261416692 0.019116140985725935 8.963661546079905
213 1 7.211509662486284 0.009862933504931127 10.762674273905226
214 1 8.989484151143337 1.8216961585222178 10.76695917774318
215 1 7.240618869075398 1.858449377105918 12.596443325077805
216 1 9.038740498424222 0.06300774169818148 12.624514233992869
217 1 7.265534305869782 18.00738523380174 14.405442920168491
218 1 9.001645723537749 1.8731418121685153 14.458355143508108
219 1 7.216983267556344 1.8015601344032122 16.17252770503443
220 1 9.045725876007081 17.987184756265677 16.25176927751493
221 1 7.254277554260993 3.6376401173616397 17.99035004925893
222 1 9.006409776249704 5.415366506626559 17.97736727189568
223 1 7.272184403698244 5.400360893536944 1.8537075608821123
224 1 9.059684452704863 3.6175622350025143 1.7493500138241598
225 1 7.263654419922291 3.5999602321562403 3.6636908454430364
226 1 9.005590220747663 5.37580647751765 3.5553712267898887
227 1 7.240952621379642 5.4270999101590025 5.476872472668992
228 1 9.052411160037797 3.620646158310123 5.483696208905243
229 1 7.2292588003433025 3.6702158843895365 7.1898753382141765
230 1 9.016274732039493 5.344465482360088 7.21383478278816
231 1 7.200167153160547 5.433079955155756 9.09323461659792
232 1 8.991925665366997 3.6259398825821805 8.968819737427776
233 1 7.223714963085766 3.6150899421602123 10.900053780649937
234 1 8.99941712069003 5.471225692420851 10.793520091700861
235 1 7.251340991399803 5.448189609132839 12.585082980256416
236 1 9.060285017135344 3.6334247962768895 12.571740251163076
237 1 7.2139974373491 3.6069583136517815 14.510728168616508
238 1 8.989107798193313 5.353569796442614 14.423670801591735
239 1 7.240399357883273 5.357533507554069 16.279726880723263
240 1 9.045238026546018 3.5928291699966444 16.184775718672995
241 1 7.16517646719695 7.20740090291711 0.04256153421897097
242 1 9.025059449199933 9.024756517496812 17.975543736551906
243 1 7.249858988791782 9.07766491917684 1.8347885137215263
244 1 8.970856957180736 7.248442885976237 1.8391191651313568
245 1 7.236729090712063 7.190902785341745 3.5520116962898456
246 1 9.073131604843477 8.981947784732741 3.5847005545456105
247 1 7.22662434841317 9.087811708833932 5.393308587756835
248 1 8.982555804174304 7.1682814754843145 5.406536594610561
249 1 7.245650170042351 7.25539790450358 7.168226212152535
250 1 9.020929958664171 9.010642512310048 7.288511824163861
251 1 7.207923396211414 9.032850932589225 8.957205355343493
252 1 9.034138770909452 7.172621379793121 8.979564976521567
253 1 7.2777137680664685 7.232780993301896 10.869144458083031
254 1 9.07363211511008 9.070723630907468 10.838237228188975
255 1 7.224321136487142 9.021124009988108 12.704252598376828
256 1 9.03030429024141 7.281221661449332 12.601338736767074
257 1 7.21248850251093 7.165666949486894 14.487982632306544
258 1 9.034015756251936 9.001709435426303 14.505938574465628
259 1 7.1747390628481895 9.029018979985722 16.2853640506744
260 1 9.088033303658245 7.240195039643086 16.24220728628169
261 1 7.242207670595325 10.846222212776183 0.06572183920008152
262 1 8.994607356779532 12.703031801979813 18.032038706652592
263 1 7.203185905565294 12.669582504035704 1.868658280072982
264 1 9.037324817897114 10.803968908804844 1.8664756733608425
265 1 7.222283176500664 10.831570347454388 3.549927608140798
266 1 9.00407943433314 12.594289015243133 3.6642940628440597
267 1 7.2174141757113555 12.63121262905759 5.483720939265366
268 1 9.025179003879591 10.76780313716142 5.3827382876086025
269 1 7.169298239690654 10.81237119819495 7.269476255048664
270 1 9.0448406277383 12.571370357825963 7.201912224289078
271 1 7.215684934364861 12.579636647698258 9.074229089946956
272 1 9.043362809556077 10.870137074382928 9.084312241429085
273 1 7.273391040145865 10.789145717611824 10.85440676680498
274 1 9.026066729397046 12.61343398259969 10.890781759422795
275 1 7.242278081481294 12.700633712128745 12.627149250596537
276 1 9.022339241115395 10.856425806832467 12.700274846280188
277 1 7.163647876865384 10.787939462787818 14.423911900584296
278 1 9.082941848411593 12.634577777978096 14.47268653844706
279 1 7.1620661312826694 12.635619199499672 16.203977259571882
280 1 9.017922553581577 10.836656473070649 16.171584830762136
281 1 7.183921878406905 14.440918799759144 0.04917178334480001
282 1 9.047293853375708 16.308531612760824 18.03403085138304
283 1 7.229142787280707 16.242368823336594 1.8771092378387946
284 1 9.071650816163404 14.4910173187571 1.796386592116582
285 1 7.250064352003153 14.485923575211114 3.5630552962021897
286 1 9.029946370648364 16.239626171133562 3.5385581659341065
287 1 7.2027774715639055 16.223845902508224 5.470631854909079
288 1 9.073800989808818 14.396261107233077 5.427730455595515
289 1 7.221281280321524 14.485948254057488 7.165428190166031
290 1 9.046117748283026 16.229208946686946 7.283941339129538
291 1 7.216995537718586 16.189720864333403 9.061255654805953
292 1 9.027531648403007 14.471518754893108 8.961299345231247
293 1 7.239466869738674 14.503827221531068 10.834672685427966
294 1 9.080809748683672 16.232561431994608 10.773048253881294
295 1 7.267677700774325 16.237828843209257 12.682618826206749
296 1 8.976693315048008 14.396195497803149 12.639299731779102
297 1 7.266366785605479 14.469519419375583 14.486773037931222
298 1 8.987745984504356 16.28997582997334 14.399773363899058
299 1 7.154603846345872 16.228204163092514 16.245474270768952
300 1 9.083685360895684 14.439966333338681 16.203166292279416
301 1 10.834800199250484 18.031355889866422 0.06891745665502473
302 1 12.625680160617902 1.7790094256906623 17.988396707415117
303 1 10.857096939808322 1.8509204169265483 1.7670549305457817
304 1 12.672196624337662 0.03317348672610457 1.7664560253832287
305 1 10.835689148793257 0.06133157615975435 3.623995485514462
306 1 12.570165046522025 1.801296310116504 3.600829933779344
307 1 10.857637131911929 1.8314108937409164 5.465544711840274
308 1 12.66216567158536 0.0409045201622256 5.365245053086527
309 1 10.822154500235264 18.017919688513576 7.16264750450207
310 1 12.684697595192779 1.7663607228991778 7.2454167774434834
311 1 10.848916210054586 1.818578937666221 8.95892949959501
312 1 12.62808216601079 18.018759131581866 8.96684647098535
313 1 10.769103114746693 18.044631459154964 10.79320014948284
314 1 12.673206794994364 1.8232786176181643 10.88656391934025
315 1 10.829828051067768 1.82473552449703 12.568068186284961
316 1 12.625194269029615 18.011759580878316 12.572651390106968
317 1 10.829828856690138 18.039875472414735 14.36274953889661
318 1 12.604378169955385 1.8342894805083043 14.49974583615425
319 1 10.834140053046212 1.7752594027851103 16.179741424840973
320 1 12.649323797106739 0.07142804816604126 16.240231627293266
321 1 10.857453573810323 3.6586602136436506 18.013154513554547
322 1 12.628339594037314 5.40369448602066 0.06771292066838323
323 1 10.834514742771722 5.447911170422053 1.8639254368609282
324 1 12.67602108770194 3.6491577666701143 1.8426113538687123
325 1 10.881340465210435 3.6537319991907067 3.63046351454112
326 1 12.643942122618286 5.442701358967045 3.672107831393922
327 1 10.865776054791764 5.3657437949720155 5.394375312003588
328 1 12.656547161602195 3.6672012309188484 5.387506145581942
329 1 10.829343403309965 3.606545214396868 7.151351527044326
330 1 12.639833909426388 5.344508663952607 7.207536317066469
331 1 10.824494997633824 5.440855105410565 9.095022746835728
332 1 12.642951879073603 3.6073553155434808 8.9497957920066
333 1 10.827639101832167 3.6634705460479364 10.781197756063666
334 1 12.63164957634731 5.359465104155645 10.867419260867704
335 1 10.83589024360315 5.447479559451263 12.57429256011251
336 1 12.657180184988158 3.638955769838233 12.691948787254058
337 1 10.820597341122244 3.541944464334228 14.4481101061944
338 1 12.610615909532703 5.418854451606178 14.37519924029043
339 1 10.832070077613169 5.408997936877943 16.305686198966132
340 1 12.569108046653561 3.5879315267803915 16.23141109845605
341 1 10.786909288243823 7.273640416160903 18.04444000531264
342 1 12.653864976554177 9.015808653277452 0.07018314049152193
343 1 10.828508438791028 9.091771026063704 1.8387988222115037
344 1 12.602289377394035 7.220881194819733 1.8661398697841203
345 1 10.86773691124542 7.17916424393982 3.5689752714030547
346 1 12.586158906213736 8.985042759327103 3.638625017448163
347 1 10.841140036382097 9.008854309490388 5.3506019947647445
348 1 12.669052144196915 7.174386409957096 5.458441209421453
349 1 10.830600982537085 7.231834894292973 7.290150366705021
350 1 12.592465451121708 8.99531333434164 7.267710483820078
351 1 10.846569498113725 9.014557549454565 8.955627146463284
352 1 12.663134411982094 7.267820841782384 8.979542104319723
353 1 10.822045411248768 7.195451247394343 10.770307733788142
354 1 12.685126504002527 9.018415972661408 10.77325375903571
355 1 10.772243013245463 9.042590723083254 12.661147859627345
356 1 12.608958913015197 7.155971288029492 12.649609850737011
357 1 10.84958094508089 7.2611407508258115 14.391150363261527
358 1 12.657217677865324 9.065967618963919 14.489383217370222
359 1 10.822091878711547 8.975041772161687 16.202844682831486
360 1 12.630255567029105 7.220053089831782 16.311529368935783
361 1 10.83809901844596 10.830652032473134 0.06349020828186579
362 1 12.664851350038141 12.688097003434367 18.022851146246747
363 1 10.834830111020288 12.639402641141519 1.8754444025356913
364 1 12.636446619027453 10.774597548109611 1.8427293963978184
365 1 10.891421507442747 10.849434668437222 3.6368730299345406
366 1 12.596847906847087 12.660979516173425 3.659119135090667
367 1 10.79469262096572 12.587861570183914 5.380528086401336
368 1 12.62826435400871 10.829243036156392 5.481572148968701
369 1 10.797970583675362 10.79435641661203 7.271294482264655
370 1 12.625127561340472 12.641344773576222 7.151137686887157
371 1 10.7664355442394 12.633523724342318 9.055150021235502
372 1 12.625674951018675 10.790218817778262 8.969216670739284
373 1 10.839703168793426 10.838453121155489 10.759865933822939
374 1 12.696829473139328 12.650079915165586 10.842993060592057
375 1 10.81193320088581 12.6180881417297 12.699831970103453
376 1 12.644408295481158 10.863138949887718 12.581459706447811
377 1 10.84428428068688 10.835837396620551 14.507982343881977
378 1 12.65305564346569 12.628054367967271 14.507400509902915
379 1 10.790478715259827 12.61394240203876 16.185576331559535
380 1 12.653830160467386 10.807111837832375 16.30064543062758
381 1 10.79888848411002 14.426105864499897 0.06251344373392181
382 1 12.606622409571287 16.298438669819344 18.011391731230468
383 1 10.884685047119355 16.228787232179698 1.8394715684616874
384 1 12.679863578641045 14.477648323589241 1.841161021168308
385 1 10.82818744467317 14.424738867156243 3.6716358340489297
386 1 12.638884637685024 16.250998996233914 3.5425002999748463
387 1 10.789366969890121 16.236059862942245 5.366461557520863
388 1 12.598239440032847 14.412107138884693 5.3631149680228605
389 1 10.807805648110921 14.40174472029153 7.167784514704947
390 1 12.628558395039576 16.240359068991825 7.290264796668835
391 1 10.829482150383635 16.243116326077747 9.08385063838504
392 1 12.595224498664937 14.423243064311155 9.074125781429315
393 1 10.85984868772001 14.44042208554261 10.892223149807315
394 1 12.62748154274818 16.23124658991743 10.762149853654574
395 1 10.825639475973702 16.223832307618995 12.57615142096127
396 1 12.640458535763043 14.447997188843523 12.56810882555882
397 1 10.806659438617846 14.484174516102325 14.39561103144537
398 1 12.643333115539686 16.271732369369165 14.499875184525937
399 1 10.833401814089948 16.19959865165834 16.188195612634036
400 1 12.579938758762381 14.456447546992699 16.28201961440122
401 1 14.437016148048931 18.045979026162996 17.98982354570213
402 1 16.185837936072115 1.8193750393988413 18.01567517395643
403 1 14.481208472511293 1.861379791094362 1.8111976270978567
404 1 16.246423848930224 0.002060095676097885 1.7306213906310361
405 1 14.435575641528763 0.06705801630570879 3.63759929585823
406 1 16.23475889361818 1.8025816276160531 3.5429729743895653
407 1 14.463639821889133 1.7989395907189691 5.48363888256308
408 1 16.237796576115123 0.013587250461782762 5.348809082350049
409 1 14.411007262270939 0.06441765427724505 7.213437491915278
410 1 16.273102839987356 1.8414086313398255 7.159484383412654
411 1 14.508185628280792 1.8102542101690782 9.024245800090192
412 1 16.24677556873369 0.00440072994787713 8.950579082134416
413 1 14.494516045048263 18.028328173842148 10.79436478604747
414 1 16.184150036787095 1.821961257787687 10.847153445044038
415 1 14.376344638757175 1.799774399209192 12.661397814134615
416 1 16.274153313432723 18.01839029127645 12.582148885775245
417 1 14.468664507847087 0.05503068900992456 14.409883103944932
418 1 16.29165759295017 1.8348242159951644 14.475009247320402
419 1 14.48991907104219 1.7935043971426914 16.20308991550647
420 1 16.26533852233846 0.008144255482541225 16.17591185839579
421 1 14.440140271491908 3.6096803363457686 17.984611547941
422 1 16.225994334108687 5.376829529234417 17.9876110473954
423 1 14.420274046385202 5.402475741670831 1.745733638376161
424 1 16.233454061397826 3.645857292805856 1.865490088291164
425 1 14.426255238823972 3.6275917011834453 3.54737152106366
426 1 16.26223920155127 5.367338540363896 3.601225557329835
427 1 14.413580807765179 5.454950200001495 5.469695154085167
428 1 16.231329100260403 3.6133328265390237 5.480800029263222
429 1 14.405476815259966 3.5577607990863553 7.190804169412543
430 1 16.194939702328288 5.391469358799565 7.2678736895436
431 1 14.457963878770643 5.449467593637305 9.078096513079098
432 1 16.292391755926037 3.605745345566423 8.975343298420979
433 1 14.421953255794117 3.598077679938083 10.768536195761246
434 1 16.274090531010764 5.473767116244461 10.857851842672195
435 1 14.476730812098303 5.403883368869969 12.578450983883284
436 1 16.26470241415772 3.6222951477976792 12.567749811102255
437 1 14.43939097018238 3.614686446082619 14.374186516361638
438 1 16.244281088567615 5.464073701515866 14.397493770568886
439 1 14.44446118969075 5.373554705938035 16.19430018351416
440 1 16.305959060230148 3.629035089739279 16.22198765739735
441 1 14.418434978111176 7.226720330858192 17.98472729548046
442 1 16.255415051904023 9.01699527849013 0.06766485640226907
443 1 14.442156569300508 9.048440018102726 1.753985478066413
444 1 16.24278601988367 7.228009777443691 1.7371625473142427
445 1 14.378972770974931 7.258577739494883 3.5951349438903737
446 1 16.242881829350203 9.02497962308324 3.5410896911403977
447 1 14.436666871598062 9.077886238109485 5.381130546128836
448 1 16.187978314269458 7.233425394494137 5.381272540623904
449 1 14.383166120511683 7.252108251026986 7.195964832083044
450 1 16.303598758355694 9.00329146107976 7.202081531449793
451 1 14.429049280099063 9.03743156916409 9.087794583477084
452 1 16.264104085759342 7.166061047272128 8.984362086009325
453 1 14.418921356691259 7.2541126311946655 10.771954238334366
454 1 16.17828734008587 9.004420481660958 10.85810567677998
455 1 14.377592794306025 9.004863489164292 12.602631972715704
456 1 16.281948683522355 7.2621640941827525 12.664116706488688
457 1 14.471021228283258 7.1784614843561 14.476658215927303
458 1 16.268637013658683 8.963705552494469 14.417041271825061
459 1 14.457031407923617 8.985614069301507 16.191189348788374
460 1 16.254325072456407 7.2349383231155775 16.30924272650354
461 1 14.45386091315067 10.826079108406896 17.976444672797427
462 1 16.247543438005895 12.637246969764083 0.06810044980289504
463 1 14.494797651122505 12.594860572646303 1.8308944379147087
464 1 16.18543457170551 10.790442868905236 1.8215846709505512
465 1 14.471682629674586 10.847396608798553 3.667379046308336
466 1 16.272120983700134 12.667723693187066 3.6650138807213777
467 1 14.38525608706588 12.660154637814792 5.45081324420825
468 1 16.2237062862068 10.880157463863405 5.3715334285024054
469 1 14.388225159254814 10.87160466837468 7.21160318193574
470 1 16.25317202732647 12.672704025035815 7.278414330343925
471 1 14.394283211620026 12.631869831652848 8.976456998364926
472 1 16.23984044917071 10.818390079837991 9.09162399066097
473 1 14.38260271876169 10.870124068557642 10.853926773000389
474 1 16.215087079830035 12.590439564956759 10.868613676841774
475 1 14.493067362754394 12.63284185219841 12.678997667688227
476 1 16.276058155443565 10.852247526490011 12.694220577535246
477 1 14.419579234046381 10.897113724564106 14.433844054509635
478 1 16.25472651470612 12.701624308346117 14.432542345115388
479 1 14.485428254215453 12.632629249075606 16.193055607657147
480 1 16.28867745631508 10.882588333114283 16.21203556020911
481 1 14.4058458944539 14.398062310448612 18.006643310803206
482 1 16.25582352578426 16.264129597788212 0.06312275460531365
483 1 14.449128575080206 16.24949772892867 1.8750954673137838
484 1 16.262892581855343 14.392423787148237 1.7710038635797614
485 1 14.393781101905613 14.477843081289889 3.6375073296894653