LAMMPS Description

12000 atoms
1 atom types

0.0 108.3 xlo xhi
0.0 36.1 ylo yhi
0.0 36.1 zlo zhi

Masses

1 63.55

Atoms # atomic

1 1 0.0 0.0 0.0
2 1 1.805 1.805 0.0
3 1 0.0 1.805 1.805
4 1 1.805 0.0 1.805
5 1 0.0 0.0 3.61
6 1 1.805 1.805 3.61
7 1 0.0 1.805 5.415
8 1 1.805 0.0 5.415
9 1 0.0 0.0 7.22
10 1 1.805 1.805 7.22
11 1 0.0 1.805 9.025
12 1 1.805 0.0 9.025
13 1 0.0 0.0 10.83
14 1 1.805 1.805 10.83
15 1 0.0 1.805 12.635
16 1 1.805 0.0 12.635
17 1 0.0 0.0 14.44
18 1 1.805 1.805 14.44
19 1 0.0 1.805 16.245
20 1 1.805 0.0 16.245
21 1 0.0 0.0 18.05
22 1 1.805 1.805 18.05
23 1 0.0 1.805 19.855
24 1 1.805 0.0 19.855
25 1 0.0 0.0 21.66
26 1 1.805 1.805 21.66
27 1 0.0 1.805 23.465
28 1 1.805 0.0 23.465
29 1 0.0 0.0 25.27
30 1 1.805 1.805 25.27
31 1 0.0 1.805 27.075
32 1 1.805 0.0 27.075
33 1 0.0 0.0 28.88
34 1 1.805 1.805 28.88
35 1 0.0 1.805 30.685
36 1 1.805 0.0 30.685
37 1 0.0 0.0 32.49
38 1 1.805 1.805 32.49
39 1 0.0 1.805 34.295
40 1 1.805 0.0 34.295
41 1 0.0 3.61 0.0
42 1 1.805 5.415 0.0
43 1 0.0 5.415 1.805
44 1 1.805 3.61 1.805
45 1 0.0 3.61 3.61
46 1 1.805 5.415 3.61
47 1 0.0 5.415 5.415
48 1 1.805 3.61 5.415
49 1 0.0 3.61 7.22
50 1 1.805 5.415 7.22
51 1 0.0 5.415 9.025
52 1 1.805 3.61 9.025
53 1 0.0 3.61 10.83
54 1 1.805 5.415 10.83
55 1 0.0 5.415 12.635
56 1 1.805 3.61 12.635
57 1 0.0 3.61 14.44
58 1 1.805 5.415 14.44
59 1 0.0 5.415 16.245
60 1 1.805 3.61 16.245
61 1 0.0 3.61 18.05
62 1 1.805 5.415 18.05
63 1 0.0 5.415 19.855
64 1 1.805 3.61 19.855
65 1 0.0 3.61 21.66
66 1 1.805 5.415 21.66
67 1 0.0 5.415 23.465
68 1 1.805 3.61 23.465
69 1 0.0 3.61 25.27
70 1 1.805 5.415 25.27
71 1 0.0 5.415 27.075
72 1 1.805 3.61 27.075
73 1 0.0 3.61 28.88
74 1 1.805 5.415 28.88
75 1 0.0 5.415 30.685
76 1 1.805 3.61 30.685
77 1 0.0 3.61 32.49
78 1 1.805 5.415 32.49
79 1 0.0 5.415 34.295
80 1 1.805 3.61 34.295
81 1 0.0 7.22 0.0
82 1 1.805 9.025 0.0
83 1 0.0 9.025 1.805
84 1 1.805 7.22 1.805
85 1 0.0 7.22 3.61
86 1 1.805 9.025 3.61
87 1 0.0 9.025 5.415
88 1 1.805 7.22 5.415
89 1 0.0 7.22 7.22
90 1 1.805 9.025 7.22
91 1 0.0 9.025 9.025
92 1 1.805 7.22 9.025
93 1 0.0 7.22 10.83
94 1 1.805 9.025 10.83
95 1 0.0 9.025 12.635
96 1 1.805 7.22 12.635
97 1 0.0 7.22 14.44
98 1 1.805 9.025 14.44
99 1 0.0 9.025 16.245
100 1 1.805 7.22 16.245
101 1 0.0 7.22 18.05
102 1 1.805 9.025 18.05
103 1 0.0 9.025 19.855
104 1 1.805 7.22 19.855
105 1 0.0 7.22 21.66
106 1 1.805 9.025 21.66
107 1 0.0 9.025 23.465
108 1 1.805 7.22 23.465
109 1 0.0 7.22 25.27
110 1 1.805 9.025 25.27
111 1 0.0 9.025 27.075
112 1 1.805 7.22 27.075
113 1 0.0 7.22 28.88
114 1 1.805 9.025 28.88
115 1 0.0 9.025 30.685
116 1 1.805 7.22 30.685
117 1 0.0 7.22 32.49
118 1 1.805 9.025 32.49
119 1 0.0 9.025 34.295
120 1 1.805 7.22 34.295
121 1 0.0 10.83 0.0
122 1 1.805 12.635 0.0
123 1 0.0 12.635 1.805
124 1 1.805 10.83 1.805
125 1 0.0 10.83 3.61
126 1 1.805 12.635 3.61
127 1 0.0 12.635 5.415
128 1 1.805 10.83 5.415
129 1 0.0 10.83 7.22
130 1 1.805 12.635 7.22
131 1 0.0 12.635 9.025
132 1 1.805 10.83 9.025
133 1 0.0 10.83 10.83
134 1 1.805 12.635 10.83
135 1 0.0 12.635 12.635
136 1 1.805 10.83 12.635
137 1 0.0 10.83 14.44
138 1 1.805 12.635 14.44
139 1 0.0 12.635 16.245
140 1 1.805 10.83 16.245
141 1 0.0 10.83 18.05
142 1 1.805 12.635 18.05
143 1 0.0 12.635 19.855
144 1 1.805 10.83 19.855
145 1 0.0 10.83 21.66
146 1 1.805 12.635 21.66
147 1 0.0 12.635 23.465
148 1 1.805 10.83 23.465
149 1 0.0 10.83 25.27
150 1 1.805 12.635 25.27
151 1 0.0 12.635 27.075
152 1 1.805 10.83 27.075
153 1 0.0 10.83 28.88
154 1 1.805 12.635 28.88
155 1 0.0 12.635 30.685
156 1 1.805 10.83 30.685
157 1 0.0 10.83 32.49
158 1 1.805 12.635 32.49
159 1 0.0 12.635 34.295
160 1 1.805 10.83 34.295
161 1 0.0 14.44 0.0
162 1 1.805 16.245 0.0
163 1 0.0 16.245 1.805
164 1 1.805 14.44 1.805
165 1 0.0 14.44 3.61
166 1 1.805 16.245 3.61
167 1 0.0 16.245 5.415
168 1 1.805 14.44 5.415
169 1 0.0 14.44 7.22
170 1 1.805 16.245 7.22
171 1 0.0 16.245 9.025
172 1 1.805 14.44 9.025
173 1 0.0 14.44 10.83
174 1 1.805 16.245 10.83
175 1 0.0 16.245 12.635
176 1 1.805 14.44 12.635
177 1 0.0 14.44 14.44
178 1 1.805 16.245 14.44
179 1 0.0 16.245 16.245
180 1 1.805 14.44 16.245
181 1 0.0 14.44 18.05
182 1 1.805 16.245 18.05
183 1 0.0 16.245 19.855
184 1 1.805 14.44 19.855
185 1 0.0 14.44 21.66
186 1 1.805 16.245 21.66
187 1 0.0 16.245 23.465
188 1 1.805 14.44 23.465
189 1 0.0 14.44 25.27
190 1 1.805 16.245 25.27
191 1 0.0 16.245 27.075
192 1 1.805 14.44 27.075
193 1 0.0 14.44 28.88
194 1 1.805 16.245 28.88
195 1 0.0 16.245 30.685
196 1 1.805 14.44 30.685
197 1 0.0 14.44 32.49
198 1 1.805 16.245 32.49
199 1 0.0 16.245 34.295
200 1 1.805 14.44 34.295
201 1 0.0 18.05 0.0
202 1 1.805 19.855 0.0
203 1 0.0 19.855 1.805
204 1 1.805 18.05 1.805
205 1 0.0 18.05 3.61
206 1 1.805 19.855 3.61
207 1 0.0 19.855 5.415
208 1 1.805 18.05 5.415
209 1 0.0 18.05 7.22
210 1 1.805 19.855 7.22
211 1 0.0 19.855 9.025
212 1 1.805 18.05 9.025
213 1 0.0 18.05 10.83
214 1 1.805 19.855 10.83
215 1 0.0 19.855 12.635
216 1 1.805 18.05 12.635
217 1 0.0 18.05 14.44
218 1 1.805 19.855 14.44
219 1 0.0 19.855 16.245
220 1 1.805 18.05 16.245
221 1 0.0 18.05 18.05
222 1 1.805 19.855 18.05
223 1 0.0 19.855 19.855
224 1 1.805 18.05 19.855
225 1 0.0 18.05 21.66
226 1 1.805 19.855 21.66
227 1 0.0 19.855 23.465
228 1 1.805 18.05 23.465
229 1 0.0 18.05 25.27
230 1 1.805 19.855 25.27
231 1 0.0 19.855 27.075
232 1 1.805 18.05 27.075
233 1 0.0 18.05 28.88
234 1 1.805 19.855 28.88
235 1 0.0 19.855 30.685
236 1 1.805 18.05 30.685
237 1 0.0 18.05 32.49
238 1 1.805 19.855 32.49
239 1 0.0 19.855 34.295
240 1 1.805 18.05 34.295
241 1 0.0 21.66 0.0
242 1 1.805 23.465 0.0
243 1 0.0 23.465 1.805
244 1 1.805 21.66 1.805
245 1 0.0 21.66 3.61
246 1 1.805 23.465 3.61
247 1 0.0 23.465 5.415
248 1 1.805 21.66 5.415
249 1 0.0 21.66 7.22
250 1 1.805 23.465 7.22
251 1 0.0 23.465 9.025
252 1 1.805 21.66 9.025
253 1 0.0 21.66 10.83
254 1 1.805 23.465 10.83
255 1 0.0 23.465 12.635
256 1 1.805 21.66 12.635
257 1 0.0 21.66 14.44
258 1 1.805 23.465 14.44
259 1 0.0 23.465 16.245
260 1 1.805 21.66 16.245
261 1 0.0 21.66 18.05
262 1 1.805 23.465 18.05
263 1 0.0 23.465 19.855
264 1 1.805 21.66 19.855
265 1 0.0 21.66 21.66
266 1 1.805 23.465 21.66
267 1 0.0 23.465 23.465
268 1 1.805 21.66 23.465
269 1 0.0 21.66 25.27
270 1 1.805 23.465 25.27
271 1 0.0 23.465 27.075
272 1 1.805 21.66 27.075
273 1 0.0 21.66 28.88
274 1 1.805 23.465 28.88
275 1 0.0 23.465 30.685
276 1 1.805 21.66 30.685
277 1 0.0 21.66 32.49
278 1 1.805 23.465 32.49
279 1 0.0 23.465 34.295
280 1 1.805 21.66 34.295
281 1 0.0 25.27 0.0
282 1 1.805 27.075 0.0
283 1 0.0 27.075 1.805
284 1 1.805 25.27 1.805
285 1 0.0 25.27 3.61
286 1 1.805 27.075 3.61
287 1 0.0 27.075 5.415
288 1 1.805 25.27 5.415
289 1 0.0 25.27 7.22
290 1 1.805 27.075 7.22
291 1 0.0 27.075 9.025
292 1 1.805 25.27 9.025
293 1 0.0 25.27 10.83
294 1 1.805 27.075 10.83
295 1 0.0 27.075 12.635
296 1 1.805 25.27 12.635
297 1 0.0 25.27 14.44
298 1 1.805 27.075 14.44
299 1 0.0 27.075 16.245
300 1 1.805 25.27 16.245
301 1 0.0 25.27 18.05
302 1 1.805 27.075 18.05
303 1 0.0 27.075 19.855
304 1 1.805 25.27 19.855
305 1 0.0 25.27 21.66
306 1 1.805 27.075 21.66
307 1 0.0 27.075 23.465
308 1 1.805 25.27 23.465
309 1 0.0 25.27 25.27
310 1 1.805 27.075 25.27
311 1 0.0 27.075 27.075
312 1 1.805 25.27 27.075
313 1 0.0 25.27 28.88
314 1 1.805 27.075 28.88
315 1 0.0 27.075 30.685
316 1 1.805 25.27 30.685
317 1 0.0 25.27 32.49
318 1 1.805 27.075 32.49
319 1 0.0 27.075 34.295
320 1 1.805 25.27 34.295
321 1 0.0 28.88 0.0
322 1 1.805 30.685 0.0
323 1 0.0 30.685 1.805
324 1 1.805 28.88 1.805
325 1 0.0 28.88 3.61
326 1 1.805 30.685 3.61
327 1 0.0 30.685 5.415
328 1 1.805 28.88 5.415
329 1 0.0 28.88 7.22
330 1 1.805 30.685 7.22
331 1 0.0 30.685 9.025
332 1 1.805 28.88 9.025
333 1 0.0 28.88 10.83
334 1 1.805 30.685 10.83
335 1 0.0 30.685 12.635
336 1 1.805 28.88 12.635
337 1 0.0 28.88 14.44
338 1 1.805 30.685 14.44
339 1 0.0 30.685 16.245
340 1 1.805 28.88 16.245
341 1 0.0 28.88 18.05
342 1 1.805 30.685 18.05
343 1 0.0 30.685 19.855
344 1 1.805 28.88 19.855
345 1 0.0 28.88 21.66
346 1 1.805 30.685 21.66
347 1 0.0 30.685 23.465
348 1 1.805 28.88 23.465
349 1 0.0 28.88 25.27
350 1 1.805 30.685 25.27
351 1 0.0 30.685 27.075
352 1 1.805 28.88 27.075
353 1 0.0 28.88 28.88
354 1 1.805 30.685 28.88
355 1 0.0 30.685 30.685
356 1 1.805 28.88 30.685
357 1 0.0 28.88 32.49
358 1 1.805 30.685 32.49
359 1 0.0 30.685 34.295
360 1 1.805 28.88 34.295
361 1 0.0 32.49 0.0
362 1 1.805 34.295 0.0
363 1 0.0 34.295 1.805
364 1 1.805 32.49 1.805
365 1 0.0 32.49 3.61
366 1 1.805 34.295 3.61
367 1 0.0 34.295 5.415
368 1 1.805 32.49 5.415
369 1 0.0 32.49 7.22
370 1 1.805 34.295 7.22
371 1 0.0 34.295 9.025
372 1 1.805 32.49 9.025
373 1 0.0 32.49 10.83
374 1 1.805 34.295 10.83
375 1 0.0 34.295 12.635
376 1 1.805 32.49 12.635
377 1 0.0 32.49 14.44
378 1 1.805 34.295 14.44
379 1 0.0 34.295 16.245
380 1 1.805 32.49 16.245
381 1 0.0 32.49 18.05
382 1 1.805 34.295 18.05
383 1 0.0 34.295 19.855
384 1 1.805 32.49 19.855
385 1 0.0 32.49 21.66
386 1 1.805 34.295 21.66
387 1 0.0 34.295 23.465
388 1 1.805 32.49 23.465
389 1 0.0 32.49 25.27
390 1 1.805 34.295 25.27
391 1 0.0 34.295 27.075
392 1 1.805 32.49 27.075
393 1 0.0 32.49 28.88
394 1 1.805 34.295 28.88
395 1 0.0 34.295 30.685
396 1 1.805 32.49 30.685
397 1 0.0 32.49 32.49
398 1 1.805 34.295 32.49
399 1 0.0 34.295 34.295
400 1 1.805 32.49 34.295
401 1 3.61 0.0 0.0
402 1 5.415 1.805 0.0
403 1 3.61 1.805 1.805
404 1 5.415 0.0 1.805
405 1 3.61 0.0 3.61
406 1 5.415 1.805 3.61
407 1 3.61 1.805 5.415
408 1 5.415 0.0 5.415
409 1 3.61 0.0 7.22
410 1 5.415 1.805 7.22
411 1 3.61 1.805 9.025
412 1 5.415 0.0 9.025
413 1 3.61 0.0 10.83
414 1 5.415 1.805 10.83
415 1 3.61 1.805 12.635
416 1 5.415 0.0 12.635
417 1 3.61 0.0 14.44
418 1 5.415 1.805 14.44
419 1 3.61 1.805 16.245
420 1 5.415 0.0 16.245
421 1 3.61 0.0 18.05
422 1 5.415 1.805 18.05
423 1 3.61 1.805 19.855
424 1 5.415 0.0 19.855
425 1 3.61 0.0 21.66
426 1 5.415 1.805 21.66
427 1 3.61 1.805 23.465
428 1 5.415 0.0 23.465
429 1 3.61 0.0 25.27
430 1 5.415 1.805 25.27
431 1 3.61 1.805 27.075
432 1 5.415 0.0 27.075
433 1 3.61 0.0 28.88
434 1 5.415 1.805 28.88
435 1 3.61 1.805 30.685
436 1 5.415 0.0 30.685
437 1 3.61 0.0 32.49
438 1 5.415 1.805 32.49
439 1 3.61 1.805 34.295
440 1 5.415 0.0 34.295
441 1 3.61 3.61 0.0
442 1 5.415 5.415 0.0
443 1 3.61 5.415 1.805
444 1 5.415 3.61 1.805
445 1 3.61 3.61 3.61
446 1 5.415 5.415 3.61
447 1 3.61 5.415 5.415
448 1 5.415 3.61 5.415
449 1 3.61 3.61 7.22
450 1 5.415 5.415 7.22
451 1 3.61 5.415 9.025
452 1 5.415 3.61 9.025
453 1 3.61 3.61 10.83
454 1 5.415 5.415 10.83
455 1 3.61 5.415 12.635
456 1 5.415 3.61 12.635
457 1 3.61 3.61 14.44
458 1 5.415 5.415 14.44
459 1 3.61 5.415 16.245
460 1 5.415 3.61 16.245
461 1 3.61 3.61 18.05
462 1 5.415 5.415 18.05
463 1 3.61 5.415 19.855
464 1 5.415 3.61 19.855
465 1 3.61 3.61 21.66
466 1 5.415 5.415 21.66
467 1 3.61 5.415 23.465
468 1 5.415 3.61 23.465
469 1 3.61 3.61 25.27
470 1 5.415 5.415 25.27
471 1 3.61 5.415 27.075
472 1 5.415 3.61 27.075
473 1 3.61 3.61 28.88
474 1 5.415 5.415 28.88
475 1 3.61 5.415 30.685
476 1 5.415 3.61 30.685
477 1 3.61 3.61 32.49
478 1 5.415 5.415 32.49
479 1 3.61 5.415 34.295
480 1 5.415 3.61 34.295
481 1 3.61 7.22 0.0
482 1 5.415 9.025 0.0
483 1 3.61 9.025 1.805
484 1 5.415 7.22 1.805
485 1 3.61 7.22 3.61
486 1 5.415 9.025 3.61
487 1 3.61 9.025 5.415
488 1 5.415 7.22 5.415
489 1 3.61 7.22 7.22
490 1 5.415 9.025 7.22
491 1 3.61 9.025 9.025
492 1 5.415 7.22 9.025
493 1 3.61 7.22 10.83
494 1 5.415 9.025 10.83
495 1 3.61 9.025 12.635
496 1 5.415 7.22 12.635
497 1 3.61 7.22 14.44
498 1 5.415 9.025 14.44
499 1 3.61 9.025 16.245
500 1 5.415 7.22 16.245
501 1 3.61 7.22 18.05
502 1 5.415 9.025 18.05
503 1 3.61 9.025 19.855
504 1 5.415 7.22 19.855
505 1 3.61 7.22 21.66
506 1 5.415 9.025 21.66
507 1 3.61 9.025 23.465
508 1 5.415 7.22 23.465
509 1 3.61 7.22 25.27
510 1 5.415 9.025 25.27
511 1 3.61 9.025 27.075
512 1 5.415 7.22 27.075
513 1 3.61 7.22 28.88
514 1 5.415 9.025 28.88
515 1 3.61 9.025 30.685
516 1 5.415 7.22 30.685
517 1 3.61 7.22 32.49
518 1 5.415 9.025 32.49
519 1 3.61 9.025 34.295
520 1 5.415 7.22 34.295
521 1 3.61 10.83 0.0
522 1 5.415 12.635 0.0
523 1 3.61 12.635 1.805
524 1 5.415 10.83 1.805
525 1 3.61 10.83 3.61
526 1 5.415 12.635 3.61
527 1 3.61 12.635 5.415
528 1 5.415 10.83 5.415
529 1 3.61 10.83 7.22
530 1 5.415 12.635 7.22
531 1 3.61 12.635 9.025
532 1 5.415 10.83 9.025
533 1 3.61 10.83 10.83
534 1 5.415 12.635 10.83
535 1 3.61 12.635 12.635
536 1 5.415 10.83 12.635
537 1 3.61 10.83 14.44
538 1 5.415 12.635 14.44
539 1 3.61 12.635 16.245
540 1 5.415 10.83 16.245
541 1 3.61 10.83 18.05
542 1 5.415 12.635 18.05
543 1 3.61 12.635 19.855
544 1 5.415 10.83 19.855
545 1 3.61 10.83 21.66
546 1 5.415 12.635 21.66
547 1 3.61 12.635 23.465
548 1 5.415 10.83 23.465
549 1 3.61 10.83 25.27
550 1 5.415 12.635 25.27
551 1 3.61 12.635 27.075
552 1 5.415 10.83 27.075
553 1 3.61 10.83 28.88
554 1 5.415 12.635 28.88
555 1 3.61 12.635 30.685
556 1 5.415 10.83 30.685
557 1 3.61 10.83 32.49
558 1 5.415 12.635 32.49
559 1 3.61 12.635 34.295
560 1 5.415 10.83 34.295
561 1 3.61 14.44 0.0
562 1 5.415 16.245 0.0
563 1 3.61 16.245 1.805
564 1 5.415 14.44 1.805
565 1 3.61 14.44 3.61
566 1 5.415 16.245 3.61
567 1 3.61 16.245 5.415
568 1 5.415 14.44 5.415
569 1 3.61 14.44 7.22
570 1 5.415 16.245 7.22
571 1 3.61 16.245 9.025
572 1 5.415 14.44 9.025
573 1 3.61 14.44 10.83
574 1 5.415 16.245 10.83
575 1 3.61 16.245 12.635
576 1 5.415 14.44 12.635
577 1 3.61 14.44 14.44
578 1 5.415 16.245 14.44
579 1 3.61 16.245 16.245
580 1 5.415 14.44 16.245
581 1 3.61 14.44 18.05
582 1 5.415 16.245 18.05
583 1 3.61 16.245 19.855
584 1 5.415 14.44 19.855
585 1 3.61 14.44 21.66
586 1 5.415 16.245 21.66
587 1 3.61 16.245 23.465
588 1 5.415 14.44 23.465
589 1 3.61 14.44 25.27
590 1 5.415 16.245 25.27
591 1 3.61 16.245 27.075
592 1 5.415 14.44 27.075
593 1 3.61 14.44 28.88
594 1 5.415 16.245 28.88
595 1 3.61 16.245 30.685
596 1 5.415 14.44 30.685
597 1 3.61 14.44 32.49
598 1 5.415 16.245 32.49
599 1 3.61 16.245 34.295
600 1 5.415 14.44 34.295
601 1 3.61 18.05 0.0
602 1 5.415 19.855 0.0
603 1 3.61 19.855 1.805
604 1 5.415 18.05 1.805
605 1 3.61 18.05 3.61
606 1 5.415 19.855 3.61
607 1 3.61 19.855 5.415
608 1 5.415 18.05 5.415
609 1 3.61 18.05 7.22
610 1 5.415 19.855 7.22
611 1 3.61 19.855 9.025
612 1 5.415 18.05 9.025
613 1 3.61 18.05 10.83
614 1 5.415 19.855 10.83
615 1 3.61 19.855 12.635
616 1 5.415 18.05 12.635
617 1 3.61 18.05 14.44
618 1 5.415 19.855 14.44
619 1 3.61 19.855 16.245
620 1 5.415 18.05 16.245
621 1 3.61 18.05 18.05
622 1 5.415 19.855 18.05
623 1 3.61 19.855 19.855
624 1 5.415 18.05 19.855
625 1 3.61 18.05 21.66
626 1 5.415 19.855 21.66
627 1 3.61 19.855 23.465
628 1 5.415 18.05 23.465
629 1 3.61 18.05 25.27
630 1 5.415 19.855 25.27
631 1 3.61 19.855 27.075
632 1 5.415 18.05 27.075
633 1 3.61 18.05 28.88
634 1 5.415 19.855 28.88
635 1 3.61 19.855 30.685
636 1 5.415 18.05 30.685
637 1 3.61 18.05 32.49
638 1 5.415 19.855 32.49
639 1 3.61 19.855 34.295
640 1 5.415 18.05 34.295
641 1 3.61 21.66 0.0
642 1 5.415 23.465 0.0
643 1 3.61 23.465 1.805
644 1 5.415 21.66 1.805
645 1 3.61 21.66 3.61
646 1 5.415 23.465 3.61
647 1 3.61 23.465 5.415
648 1 5.415 21.66 5.415
649 1 3.61 21.66 7.22
650 1 5.415 23.465 7.22
651 1 3.61 23.465 9.025
652 1 5.415 21.66 9.025
653 1 3.61 21.66 10.83
654 1 5.415 23.465 10.83
655 1 3.61 23.465 12.635
656 1 5.415 21.66 12.635
657 1 3.61 21.66 14.44
658 1 5.415 23.465 14.44
659 1 3.61 23.465 16.245
660 1 5.415 21.66 16.245
661 1 3.61 21.66 18.05
662 1 5.415 23.465 18.05
663 1 3.61 23.465 19.855
664 1 5.415 21.66 19.855
665 1 3.61 21.66 21.66
666 1 5.415 23.465 21.66
667 1 3.61 23.465 23.465
668 1 5.415 21.66 23.465
669 1 3.61 21.66 25.27
670 1 5.415 23.465 25.27
671 1 3.61 23.465 27.075
672 1 5.415 21.66 27.075
673 1 3.61 21.66 28.88
674 1 5.415 23.465 28.88
675 1 3.61 23.465 30.685
676 1 5.415 21.66 30.685
677 1 3.61 21.66 32.49
678 1 5.415 23.465 32.49
679 1 3.61 23.465 34.295
680 1 5.415 21.66 34.295
681 1 3.61 25.27 0.0
682 1 5.415 27.075 0.0
683 1 3.61 27.075 1.805
684 1 5.415 25.27 1.805
685 1 3.61 25.27 3.61
686 1 5.415 27.075 3.61
687 1 3.61 27.075 5.415
688 1 5.415 25.27 5.415
689 1 3.61 25.27 7.22
690 1 5.415 27.075 7.22
691 1 3.61 27.075 9.025
692 1 5.415 25.27 9.025
693 1 3.61 25.27 10.83
694 1 5.415 27.075 10.83
695 1 3.61 27.075 12.635
696 1 5.415 25.27 12.635
697 1 3.61 25.27 14.44
698 1 5.415 27.075 14.44
699 1 3.61 27.075 16.245
700 1 5.415 25.27 16.245
701 1 3.61 25.27 18.05
702 1 5.415 27.075 18.05
703 1 3.61 27.075 19.855
704 1 5.415 25.27 19.855
705 1 3.61 25.27 21.66
706 1 5.415 27.075 21.66
707 1 3.61 27.075 23.465
708 1 5.415 25.27 23.465
709 1 3.61 25.27 25.27
710 1 5.415 27.075 25.27
711 1 3.61 27.075 27.075
712 1 5.415 25.27 27.075
713 1 3.61 25.27 28.88
714 1 5.415 27.075 28.88
715 1 3.61 27.075 30.685
716 1 5.415 25.27 30.685
717 1 3.61 25.27 32.49
718 1 5.415 27.075 32.49
719 1 3.61 27.075 34.295
720 1 5.415 25.27 34.295
721 1 3.61 28.88 0.0
722 1 5.415 30.685 0.0
723 1 3.61 30.685 1.805
724 1 5.415 28.88 1.805
725 1 3.61 28.88 3.61
726 1 5.415 30.685 3.61
727 1 3.61 30.685 5.415
728 1 5.415 28.88 5.415
729 1 3.61 28.88 7.22
730 1 5.415 30.685 7.22
731 1 3.61 30.685 9.025
732 1 5.415 28.88 9.025
733 1 3.61 28.88 10.83
734 1 5.415 30.685 10.83
735 1 3.61 30.685 12.635
736 1 5.415 28.88 12.635
737 1 3.61 28.88 14.44
738 1 5.415 30.685 14.44
739 1 3.61 30.685 16.245
740 1 5.415 28.88 16.245
741 1 3.61 28.88 18.05
742 1 5.415 30.685 18.05
743 1 3.61 30.685 19.855
744 1 5.415 28.88 19.855
745 1 3.61 28.88 21.66
746 1 5.415 30.685 21.66
747 1 3.61 30.685 23.465
748 1 5.415 28.88 23.465
749 1 3.61 28.88 25.27
750 1 5.415 30.685 25.27
751 1 3.61 30.685 27.075
752 1 5.415 28.88 27.075
753 1 3.61 28.88 28.88
754 1 5.415 30.685 28.88
755 1 3.61 30.685 30.685
756 1 5.415 28.88 30.685
757 1 3.61 28.88 32.49
758 1 5.415 30.685 32.49
759 1 3.61 30.685 34.295
760 1 5.415 28.88 34.295
761 1 3.61 32.49 0.0
762 1 5.415 34.295 0.0
763 1 3.61 34.295 1.805
764 1 5.415 32.49 1.805
765 1 3.61 32.49 3.61
766 1 5.415 34.295 3.61
767 1 3.61 34.295 5.415
768 1 5.415 32.49 5.415
769 1 3.61 32.49 7.22
770 1 5.415 34.295 7.22
771 1 3.61 34.295 9.025
772 1 5.415 32.49 9.025
773 1 3.61 32.49 10.83
774 1 5.415 34.295 10.83
775 1 3.61 34.295 12.635
776 1 5.415 32.49 12.635
777 1 3.61 32.49 14.44
778 1 5.415 34.295 14.44
779 1 3.61 34.295 16.245
780 1 5.415 32.49 16.245
781 1 3.61 32.49 18.05
782 1 5.415 34.295 18.05
783 1 3.61 34.295 19.855
784 1 5.415 32.49 19.855
785 1 3.61 32.49 21.66
786 1 5.415 34.295 21.66
787 1 3.61 34.295 23.465
788 1 5.415 32.49 23.465
789 1 3.61 32.49 25.27
790 1 5.415 34.295 25.27
791 1 3.61 34.295 27.075
792 1 5.415 32.49 27.075
793 1 3.61 32.49 28.88
794 1 5.415 34.295 28.88
795 1 3.61 34.295 30.685
796 1 5.415 32.49 30.685
797 1 3.61 32.49 32.49
798 1 5.415 34.295 32.49
799 1 3.61 34.295 34.295
800 1 5.415 32.49 34.295
801 1 7.22 0.0 0.0
802 1 9.025 1.805 0.0
803 1 7.22 1.805 1.805
804 1 9.025 0.0 1.805
805 1 7.22 0.0 3.61
806 1 9.025 1.805 3.61
807 1 7.22 1.805 5.415
808 1 9.025 0.0 5.415
809 1 7.22 0.0 7.22
810 1 9.025 1.805 7.22
811 1 7.22 1.805 9.025
812 1 9.025 0.0 9.025
813 1 7.22 0.0 10.83
814 1 9.025 1.805 10.83
815 1 7.22 1.805 12.635
816 1 9.025 0.0 12.635
817 1 7.22 0.0 14.44
818 1 9.025 1.805 14.44
819 1 7.22 1.805 16.245
820 1 9.025 0.0 16.245
821 1 7.22 0.0 18.05
822 1 9.025 1.805 18.05
823 1 7.22 1.805 19.855
824 1 9.025 0.0 19.855
825 1 7.22 0.0 21.66
826 1 9.025 1.805 21.66
827 1 7.22 1.805 23.465
828 1 9.025 0.0 23.465
829 1 7.22 0.0 25.27
830 1 9.025 1.805 25.27
831 1 7.22 1.805 27.075
832 1 9.025 0.0 27.075
833 1 7.22 0.0 28.88
834 1 9.025 1.805 28.88
835 1 7.22 1.805 30.685
836 1 9.025 0.0 30.685
837 1 7.22 0.0 32.49
838 1 9.025 1.805 32.49
839 1 7.22 1.805 34.295
840 1 9.025 0.0 34.295
841 1 7.22 3.61 0.0
842 1 9.025 5.415 0.0
843 1 7.22 5.415 1.805
844 1 9.025 3.61 1.805
845 1 7.22 3.61 3.61
846 1 9.025 5.415 3.61
847 1 7.22 5.415 5.415
848 1 9.025 3.61 5.415
849 1 7.22 3.61 7.22
850 1 9.025 5.415 7.22
851 1 7.22 5.415 9.025
852 1 9.025 3.61 9.025
853 1 7.22 3.61 10.83
854 1 9.025 5.415 10.83
855 1 7.22 5.415 12.635
856 1 9.025 3.61 12.635
857 1 7.22 3.61 14.44
858 1 9.025 5.415 14.44
859 1 7.22 5.415 16.245
860 1 9.025 3.61 16.245
861 1 7.22 3.61 18.05
862 1 9.025 5.415 18.05
863 1 7.22 5.415 19.855
864 1 9.025 3.61 19.855
865 1 7.22 3.61 21.66
866 1 9.025 5.415 21.66
867 1 7.22 5.415 23.465
868 1 9.025 3.61 23.465
869 1 7.22 3.61 25.27
870 1 9.025 5.415 25.27
871 1 7.22 5.415 27.075
872 1 9.025 3.61 27.075
873 1 7.22 3.61 28.88
874 1 9.025 5.415 28.88
875 1 7.22 5.415 30.685
876 1 9.025 3.61 30.685
877 1 7.22 3.61 32.49
878 1 9.025 5.415 32.49
879 1 7.22 5.415 34.295
880 1 9.025 3.61 34.295
881 1 7.22 7.22 0.0
882 1 9.025 9.025 0.0
883 1 7.22 9.025 1.805
884 1 9.025 7.22 1.805
885 1 7.22 7.22 3.61
886 1 9.025 9.025 3.61
887 1 7.22 9.025 5.415
888 1 9.025 7.22 5.415
889 1 7.22 7.22 7.22
890 1 9.025 9.025 7.22
891 1 7.22 9.025 9.025
892 1 9.025 7.22 9.025
893 1 7.22 7.22 10.83
894 1 9.025 9.025 10.83
895 1 7.22 9.025 12.635
896 1 9.025 7.22 12.635
897 1 7.22 7.22 14.44
898 1 9.025 9.025 14.44
899 1 7.22 9.025 16.245
900 1 9.025 7.22 16.245
901 1 7.22 7.22 18.05
902 1 9.025 9.025 18.05
903 1 7.22 9.025 19.855
904 1 9.025 7.22 19.855
905 1 7.22 7.22 21.66
906 1 9.025 9.025 21.66
907 1 7.22 9.025 23.465
908 1 9.025 7.22 23.465
909 1 7.22 7.22 25.27
910 1 9.025 9.025 25.27
911 1 7.22 9.025 27.075
912 1 9.025 7.22 27.075
913 1 7.22 7.22 28.88
914 1 9.025 9.025 28.88
915 1 7.22 9.025 30.685
916 1 9.025 7.22 30.685
917 1 7.22 7.22 32.49
918 1 9.025 9.025 32.49
919 1 7.22 9.025 34.295
920 1 9.025 7.22 34.295
921 1 7.22 10.83 0.0
922 1 9.025 12.635 0.0
923 1 7.22 12.635 1.805
924 1 9.025 10.83 1.805
925 1 7.22 10.83 3.61
926 1 9.025 12.635 3.61
927 1 7.22 12.635 5.415
928 1 9.025 10.83 5.415
929 1 7.22 10.83 7.22
930 1 9.025 12.635 7.22
931 1 7.22 12.635 9.025
932 1 9.025 10.83 9.025
933 1 7.22 10.83 10.83
934 1 9.025 12.635 10.83
935 1 7.22 12.635 12.635
936 1 9.025 10.83 12.635
937 1 7.22 10.83 14.44
938 1 9.025 12.635 14.44
939 1 7.22 12.635 16.245
940 1 9.025 10.83 16.245
941 1 7.22 10.83 18.05
942 1 9.025 12.635 18.05
943 1 7.22 12.635 19.855
944 1 9.025 10.83 19.855
945 1 7.22 10.83 21.66
946 1 9.025 12.635 21.66
947 1 7.22 12.635 23.465
948 1 9.025 10.83 23.465
949 1 7.22 10.83 25.27
950 1 9.025 12.635 25.27
951 1 7.22 12.635 27.075
952 1 9.025 10.83 27.075
953 1 7.22 10.83 28.88
954 1 9.025 12.635 28.88
955 1 7.22 12.635 30.685
956 1 9.025 10.83 30.685
957 1 7.22 10.83 32.49
958 1 9.025 12.635 32.49
959 1 7.22 12.635 34.295
960 1 9.025 10.83 34.295
961 1 7.22 14.44 0.0
962 1 9.025 16.245 0.0
963 1 7.22 16.245 1.805
964 1 9.025 14.44 1.805
965 1 7.22 14.44 3.61
966 1 9.025 16.245 3.61
967 1 7.22 16.245 5.415
968 1 9.025 14.44 5.415
969 1 7.22 14.44 7.22
970 1 9.025 16.245 7.22
971 1 7.22 16.245 9.025
972 1 9.025 14.44 9.025
973 1 7.22 14.44 10.83
974 1 9.025 16.245 10.83
975 1 7.22 16.245 12.635
976 1 9.025 14.44 12.635
977 1 7.22 14.44 14.44
978 1 9.025 16.245 14.44
979 1 7.22 16.245 16.245
980 1 9.025 14.44 16.245
981 1 7.22 14.44 18.05
982 1 9.025 16.245 18.05
983 1 7.22 16.245 19.855
984 1 9.025 14.44 19.855
985 1 7.22 14.44 21.66
986 1 9.025 16.245 21.66
987 1 7.22 16.245 23.465
988 1 9.025 14.44 23.465
989 1 7.22 14.44 25.27
990 1 9.025 16.245 25.27
991 1 7.22 16.245 27.075
992 1 9.025 14.44 27.075
993 1 7.22 14.44 28.88
994 1 9.025 16.245 28.88
995 1 7.22 16.245 30.685
996 1 9.025 14.44 30.685
997 1 7.22 14.44 32.49
998 1 9.025 16.245 32.49
999 1 7.22 16.245 34.295
1000 1 9.025 14.44 34.295
1001 1 7.22 18.05 0.0
1002 1 9.025 19.855 0.0
1003 1 7.22 19.855 1.805
1004 1 9.025 18.05 1.805
1005 1 7.22 18.05 3.61
1006 1 9.025 19.855 3.61
1007 1 7.22 19.855 5.415
1008 1 9.025 18.05 5.415
1009 1 7.22 18.05 7.22
1010 1 9.025 19.855 7.22
1011 1 7.22 19.855 9.025
1012 1 9.025 18.05 9.025
1013 1 7.22 18.05 10.83
1014 1 9.025 19.855 10.83
1015 1 7.22 19.855 12.635
1016 1 9.025 18.05 12.635
1017 1 7.22 18.05 14.44
1018 1 9.025 19.855 14.44
1019 1 7.22 19.855 16.245
1020 1 9.025 18.05 16.245
1021 1 7.22 18.05 18.05
1022 1 9.025 19.855 18.05
1023 1 7.22 19.855 19.855
1024 1 9.025 18.05 19.855
1025 1 7.22 18.05 21.66
1026 1 9.025 19.855 21.66
1027 1 7.22 19.855 23.465
1028 1 9.025 18.05 23.465
1029 1 7.22 18.05 25.27
1030 1 9.025 19.855 25.27
1031 1 7.22 19.855 27.075
1032 1 9.025 18.05 27.075
1033 1 7.22 18.05 28.88
1034 1 9.025 19.855 28.88
1035 1 7.22 19.855 30.685
1036 1 9.025 18.05 30.685
1037 1 7.22 18.05 32.49
1038 1 9.025 19.855 32.49
1039 1 7.22 19.855 34.295
1040 1 9.025 18.05 34.295
1041 1 7.22 21.66 0.0
1042 1 9.025 23.465 0.0
1043 1 7.22 23.465 1.805
1044 1 9.025 21.66 1.805
1045 1 7.22 21.66 3.61
1046 1 9.025 23.465 3.61
1047 1 7.22 23.465 5.415
1048 1 9.025 21.66 5.415
1049 1 7.22 21.66 7.22
1050 1 9.025 23.465 7.22
1051 1 7.22 23.465 9.025
1052 1 9.025 21.66 9.025
1053 1 7.22 21.66 10.83
1054 1 9.025 23.465 10.83
1055 1 7.22 23.465 12.635
1056 1 9.025 21.66 12.635
1057 1 7.22 21.66 14.44
1058 1 9.025 23.465 14.44
1059 1 7.22 23.465 16.245
1060 1 9.025 21.66 16.245
1061 1 7.22 21.66 18.05
1062 1 9.025 23.465 18.05
1063 1 7.22 23.465 19.855
1064 1 9.025 21.66 19.855
1065 1 7.22 21.66 21.66
1066 1 9.025 23.465 21.66
1067 1 7.22 23.465 23.465
1068 1 9.025 21.66 23.465
1069 1 7.22 21.66 25.27
1070 1 9.025 23.465 25.27
1071 1 7.22 23.465 27.075
1072 1 9.025 21.66 27.075
1073 1 7.22 21.66 28.88
1074 1 9.025 23.465 28.88
1075 1 7.22 23.465 30.685
1076 1 9.025 21.66 30.685
1077 1 7.22 21.66 32.49
1078 1 9.025 23.465 32.49
1079 1 7.22 23.465 34.295
1080 1 9.025 21.66 34.295
1081 1 7.22 25.27 0.0
1082 1 9.025 27.075 0.0
1083 1 7.22 27.075 1.805
1084 1 9.025 25.27 1.805
1085 1 7.22 25.27 3.61
1086 1 9.025 27.075 3.61
1087 1 7.22 27.075 5.415
1088 1 9.025 25.27 5.415
1089 1 7.22 25.27 7.22
1090 1 9.025 27.075 7.22
1091 1 7.22 27.075 9.025
1092 1 9.025 25.27 9.025
1093 1 7.22 25.27 10.83
1094 1 9.025 27.075 10.83
1095 1 7.22 27.075 12.635
1096 1 9.025 25.27 12.635
1097 1 7.22 25.27 14.44
1098 1 9.025 27.075 14.44
1099 1 7.22 27.075 16.245
1100 1 9.025 25.27 16.245
1101 1 7.22 25.27 18.05
1102 1 9.025 27.075 18.05
1103 1 7.22 27.075 19.855
1104 1 9.025 25.27 19.855
1105 1 7.22 25.27 21.66
1106 1 9.025 27.075 21.66
1107 1 7.22 27.075 23.465
1108 1 9.025 25.27 23.465
1109 1 7.22 25.27 25.27
1110 1 9.025 27.075 25.27
1111 1 7.22 27.075 27.075
1112 1 9.025 25.27 27.075
1113 1 7.22 25.27 28.88
1114 1 9.025 27.075 28.88
1115 1 7.22 27.075 30.685
1116 1 9.025 25.27 30.685
1117 1 7.22 25.27 32.49
1118 1 9.025 27.075 32.49
1119 1 7.22 27.075 34.295
1120 1 9.025 25.27 34.295
1121 1 7.22 28.88 0.0
1122 1 9.025 30.685 0.0
1123 1 7.22 30.685 1.805
1124 1 9.025 28.88 1.805
1125 1 7.22 28.88 3.61
1126 1 9.025 30.685 3.61
1127 1 7.22 30.685 5.415
1128 1 9.025 28.88 5.415
1129 1 7.22 28.88 7.22
1130 1 9.025 30.685 7.22
1131 1 7.22 30.685 9.025
1132 1 9.025 28.88 9.025
1133 1 7.22 28.88 10.83
1134 1 9.025 30.685 10.83
1135 1 7.22 30.685 12.635
1136 1 9.025 28.88 12.635
1137 1 7.22 28.88 14.44
1138 1 9.025 30.685 14.44
1139 1 7.22 30.685 16.245
1140 1 9.025 28.88 16.245
1141 1 7.22 28.88 18.05
1142 1 9.025 30.685 18.05
1143 1 7.22 30.685 19.855
1144 1 9.025 28.88 19.855
1145 1 7.22 28.88 21.66
1146 1 9.025 30.685 21.66
1147 1 7.22 30.685 23.465
1148 1 9.025 28.88 23.465
1149 1 7.22 28.88 25.27
1150 1 9.025 30.685 25.27
1151 1 7.22 30.685 27.075
1152 1 9.025 28.88 27.075
1153 1 7.22 28.88 28.88
1154 1 9.025 30.685 28.88
1155 1 7.22 30.685 30.685
1156 1 9.025 28.88 30.685
1157 1 7.22 28.88 32.49
1158 1 9.025 30.685 32.49
1159 1 7.22 30.685 34.295
1160 1 9.025 28.88 34.295
1161 1 7.22 32.49 0.0
1162 1 9.025 34.295 0.0
1163 1 7.22 34.295 1.805
1164 1 9.025 32.49 1.805
1165 1 7.22 32.49 3.61
1166 1 9.025 34.295 3.61
1167 1 7.22 34.295 5.415
1168 1 9.025 32.49 5.415
1169 1 7.22 32.49 7.22
1170 1 9.025 34.295 7.22
1171 1 7.22 34.295 9.025
1172 1 9.025 32.49 9.025
1173 1 7.22 32.49 10.83
1174 1 9.025 34.295 10.83
1175 1 7.22 34.295 12.635
1176 1 9.025 32.49 12.635
1177 1 7.22 32.49 14.44
1178 1 9.025 34.295 14.44
1179 1 7.22 34.295 16.245
1180 1 9.025 32.49 16.245
1181 1 7.22 32.49 18.05
1182 1 9.025 34.295 18.05
1183 1 7.22 34.295 19.855
1184 1 9.025 32.49 19.855
1185 1 7.22 32.49 21.66
1186 1 9.025 34.295 21.66
1187 1 7.22 34.295 23.465
1188 1 9.025 32.49 23.465
1189 1 7.22 32.49 25.27
1190 1 9.025 34.295 25.27
1191 1 7.22 34.295 27.075
1192 1 9.025 32.49 27.075
1193 1 7.22 32.49 28.88
1194 1 9.025 34.295 28.88
1195 1 7.22 34.295 30.685
1196 1 9.025 32.49 30.685
1197 1 7.22 32.49 32.49
1198 1 9.025 34.295 32.49
1199 1 7.22 34.295 34.295
1200 1 9.025 32.49 34.295
1201 1 10.83 0.0 0.0
1202 1 12.635 1.805 0.0
1203 1 10.83 1.805 1.805
1204 1 12.635 0.0 1.805
1205 1 10.83 0.0 3.61
1206 1 12.635 1.805 3.61
1207 1 10.83 1.805 5.415
1208 1 12.635 0.0 5.415
1209 1 10.83 0.0 7.22
1210 1 12.635 1.805 7.22
1211 1 10.83 1.805 9.025
1212 1 12.635 0.0 9.025
1213 1 10.83 0.0 10.83
1214 1 12.635 1.805 10.83
1215 1 10.83 1.805 12.635
1216 1 12.635 0.0 12.635
1217 1 10.83 0.0 14.44
1218 1 12.635 1.805 14.44
1219 1 10.83 1.805 16.245
1220 1 12.635 0.0 16.245
1221 1 10.83 0.0 18.05
1222 1 12.635 1.805 18.05
1223 1 10.83 1.805 19.855
1224 1 12.635 0.0 19.855
1225 1 10.83 0.0 21.66
1226 1 12.635 1.805 21.66
1227 1 10.83 1.805 23.465
1228 1 12.635 0.0 23.465
1229 1 10.83 0.0 25.27
1230 1 12.635 1.805 25.27
1231 1 10.83 1.805 27.075
1232 1 12.635 0.0 27.075
1233 1 10.83 0.0 28.88
1234 1 12.635 1.805 28.88
1235 1 10.83 1.805 30.685
1236 1 12.635 0.0 30.685
1237 1 10.83 0.0 32.49
1238 1 12.635 1.805 32.49
1239 1 10.83 1.805 34.295
1240 1 12.635 0.0 34.295
1241 1 10.83 3.61 0.0
1242 1 12.635 5.415 0.0
1243 1 10.83 5.415 1.805
1244 1 12.635 3.61 1.805
1245 1 10.83 3.61 3.61
1246 1 12.635 5.415 3.61
1247 1 10.83 5.415 5.415
1248 1 12.635 3.61 5.415
1249 1 10.83 3.61 7.22
1250 1 12.635 5.415 7.22
1251 1 10.83 5.415 9.025
1252 1 12.635 3.61 9.025
1253 1 10.83 3.61 10.83
1254 1 12.635 5.415 10.83
1255 1 10.83 5.415 12.635
1256 1 12.635 3.61 12.635
1257 1 10.83 3.61 14.44