LAMMPS Description

500 atoms
1 atom types

0.0 20.45 xlo xhi
0.0 20.45 ylo yhi
0.0 20.45 zlo zhi

Masses

1 107.87

Atoms # atomic

1 1 0.0 0.0 0.0
2 1 2.045 2.045 0.0
3 1 0.0 2.045 2.045
4 1 2.045 0.0 2.045
5 1 0.0 0.0 4.09
6 1 2.045 2.045 4.09
7 1 0.0 2.045 6.135
8 1 2.045 0.0 6.135
9 1 0.0 0.0 8.18
10 1 2.045 2.045 8.18
11 1 0.0 2.045 10.225
12 1 2.045 0.0 10.225
13 1 0.0 0.0 12.27
14 1 2.045 2.045 12.27
15 1 0.0 2.045 14.315
16 1 2.045 0.0 14.315
17 1 0.0 0.0 16.36
18 1 2.045 2.045 16.36
19 1 0.0 2.045 18.405
20 1 2.045 0.0 18.405
21 1 0.0 4.09 0.0
22 1 2.045 6.135 0.0
23 1 0.0 6.135 2.045
24 1 2.045 4.09 2.045
25 1 0.0 4.09 4.09
26 1 2.045 6.135 4.09
27 1 0.0 6.135 6.135
28 1 2.045 4.09 6.135
29 1 0.0 4.09 8.18
30 1 2.045 6.135 8.18
31 1 0.0 6.135 10.225
32 1 2.045 4.09 10.225
33 1 0.0 4.09 12.27
34 1 2.045 6.135 12.27
35 1 0.0 6.135 14.315
36 1 2.045 4.09 14.315
37 1 0.0 4.09 16.36
38 1 2.045 6.135 16.36
39 1 0.0 6.135 18.405
40 1 2.045 4.09 18.405
41 1 0.0 8.18 0.0
42 1 2.045 10.225 0.0
43 1 0.0 10.225 2.045
44 1 2.045 8.18 2.045
45 1 0.0 8.18 4.09
46 1 2.045 10.225 4.09
47 1 0.0 10.225 6.135
48 1 2.045 8.18 6.135
49 1 0.0 8.18 8.18
50 1 2.045 10.225 8.18
51 1 0.0 10.225 10.225
52 1 2.045 8.18 10.225
53 1 0.0 8.18 12.27
54 1 2.045 10.225 12.27
55 1 0.0 10.225 14.315
56 1 2.045 8.18 14.315
57 1 0.0 8.18 16.36
58 1 2.045 10.225 16.36
59 1 0.0 10.225 18.405
60 1 2.045 8.18 18.405
61 1 0.0 12.27 0.0
62 1 2.045 14.315 0.0
63 1 0.0 14.315 2.045
64 1 2.045 12.27 2.045
65 1 0.0 12.27 4.09
66 1 2.045 14.315 4.09
67 1 0.0 14.315 6.135
68 1 2.045 12.27 6.135
69 1 0.0 12.27 8.18
70 1 2.045 14.315 8.18
71 1 0.0 14.315 10.225
72 1 2.045 12.27 10.225
73 1 0.0 12.27 12.27
74 1 2.045 14.315 12.27
75 1 0.0 14.315 14.315
76 1 2.045 12.27 14.315
77 1 0.0 12.27 16.36
78 1 2.045 14.315 16.36
79 1 0.0 14.315 18.405
80 1 2.045 12.27 18.405
81 1 0.0 16.36 0.0
82 1 2.045 18.405 0.0
83 1 0.0 18.405 2.045
84 1 2.045 16.36 2.045
85 1 0.0 16.36 4.09
86 1 2.045 18.405 4.09
87 1 0.0 18.405 6.135
88 1 2.045 16.36 6.135
89 1 0.0 16.36 8.18
90 1 2.045 18.405 8.18
91 1 0.0 18.405 10.225
92 1 2.045 16.36 10.225
93 1 0.0 16.36 12.27
94 1 2.045 18.405 12.27
95 1 0.0 18.405 14.315
96 1 2.045 16.36 14.315
97 1 0.0 16.36 16.36
98 1 2.045 18.405 16.36
99 1 0.0 18.405 18.405
100 1 2.045 16.36 18.405
101 1 4.09 0.0 0.0
102 1 6.135 2.045 0.0
103 1 4.09 2.045 2.045
104 1 6.135 0.0 2.045
105 1 4.09 0.0 4.09
106 1 6.135 2.045 4.09
107 1 4.09 2.045 6.135
108 1 6.135 0.0 6.135
109 1 4.09 0.0 8.18
110 1 6.135 2.045 8.18
111 1 4.09 2.045 10.225
112 1 6.135 0.0 10.225
113 1 4.09 0.0 12.27
114 1 6.135 2.045 12.27
115 1 4.09 2.045 14.315
116 1 6.135 0.0 14.315
117 1 4.09 0.0 16.36
118 1 6.135 2.045 16.36
119 1 4.09 2.045 18.405
120 1 6.135 0.0 18.405
121 1 4.09 4.09 0.0
122 1 6.135 6.135 0.0
123 1 4.09 6.135 2.045
124 1 6.135 4.09 2.045
125 1 4.09 4.09 4.09
126 1 6.135 6.135 4.09
127 1 4.09 6.135 6.135
128 1 6.135 4.09 6.135
129 1 4.09 4.09 8.18
130 1 6.135 6.135 8.18
131 1 4.09 6.135 10.225
132 1 6.135 4.09 10.225
133 1 4.09 4.09 12.27
134 1 6.135 6.135 12.27
135 1 4.09 6.135 14.315
136 1 6.135 4.09 14.315
137 1 4.09 4.09 16.36
138 1 6.135 6.135 16.36
139 1 4.09 6.135 18.405
140 1 6.135 4.09 18.405
141 1 4.09 8.18 0.0
142 1 6.135 10.225 0.0
143 1 4.09 10.225 2.045
144 1 6.135 8.18 2.045
145 1 4.09 8.18 4.09
146 1 6.135 10.225 4.09
147 1 4.09 10.225 6.135
148 1 6.135 8.18 6.135
149 1 4.09 8.18 8.18
150 1 6.135 10.225 8.18
151 1 4.09 10.225 10.225
152 1 6.135 8.18 10.225
153 1 4.09 8.18 12.27
154 1 6.135 10.225 12.27
155 1 4.09 10.225 14.315
156 1 6.135 8.18 14.315
157 1 4.09 8.18 16.36
158 1 6.135 10.225 16.36
159 1 4.09 10.225 18.405
160 1 6.135 8.18 18.405
161 1 4.09 12.27 0.0
162 1 6.135 14.315 0.0
163 1 4.09 14.315 2.045
164 1 6.135 12.27 2.045
165 1 4.09 12.27 4.09
166 1 6.135 14.315 4.09
167 1 4.09 14.315 6.135
168 1 6.135 12.27 6.135
169 1 4.09 12.27 8.18
170 1 6.135 14.315 8.18
171 1 4.09 14.315 10.225
172 1 6.135 12.27 10.225
173 1 4.09 12.27 12.27
174 1 6.135 14.315 12.27
175 1 4.09 14.315 14.315
176 1 6.135 12.27 14.315
177 1 4.09 12.27 16.36
178 1 6.135 14.315 16.36
179 1 4.09 14.315 18.405
180 1 6.135 12.27 18.405
181 1 4.09 16.36 0.0
182 1 6.135 18.405 0.0
183 1 4.09 18.405 2.045
184 1 6.135 16.36 2.045
185 1 4.09 16.36 4.09
186 1 6.135 18.405 4.09
187 1 4.09 18.405 6.135
188 1 6.135 16.36 6.135
189 1 4.09 16.36 8.18
190 1 6.135 18.405 8.18
191 1 4.09 18.405 10.225
192 1 6.135 16.36 10.225
193 1 4.09 16.36 12.27
194 1 6.135 18.405 12.27
195 1 4.09 18.405 14.315
196 1 6.135 16.36 14.315
197 1 4.09 16.36 16.36
198 1 6.135 18.405 16.36
199 1 4.09 18.405 18.405
200 1 6.135 16.36 18.405
201 1 8.18 0.0 0.0
202 1 10.225 2.045 0.0
203 1 8.18 2.045 2.045
204 1 10.225 0.0 2.045
205 1 8.18 0.0 4.09
206 1 10.225 2.045 4.09
207 1 8.18 2.045 6.135
208 1 10.225 0.0 6.135
209 1 8.18 0.0 8.18
210 1 10.225 2.045 8.18
211 1 8.18 2.045 10.225
212 1 10.225 0.0 10.225
213 1 8.18 0.0 12.27
214 1 10.225 2.045 12.27
215 1 8.18 2.045 14.315
216 1 10.225 0.0 14.315
217 1 8.18 0.0 16.36
218 1 10.225 2.045 16.36
219 1 8.18 2.045 18.405
220 1 10.225 0.0 18.405
221 1 8.18 4.09 0.0
222 1 10.225 6.135 0.0
223 1 8.18 6.135 2.045
224 1 10.225 4.09 2.045
225 1 8.18 4.09 4.09
226 1 10.225 6.135 4.09
227 1 8.18 6.135 6.135
228 1 10.225 4.09 6.135
229 1 8.18 4.09 8.18
230 1 10.225 6.135 8.18
231 1 8.18 6.135 10.225
232 1 10.225 4.09 10.225
233 1 8.18 4.09 12.27
234 1 10.225 6.135 12.27
235 1 8.18 6.135 14.315
236 1 10.225 4.09 14.315
237 1 8.18 4.09 16.36
238 1 10.225 6.135 16.36
239 1 8.18 6.135 18.405
240 1 10.225 4.09 18.405
241 1 8.18 8.18 0.0
242 1 10.225 10.225 0.0
243 1 8.18 10.225 2.045
244 1 10.225 8.18 2.045
245 1 8.18 8.18 4.09
246 1 10.225 10.225 4.09
247 1 8.18 10.225 6.135
248 1 10.225 8.18 6.135
249 1 8.18 8.18 8.18
250 1 10.225 10.225 8.18
251 1 8.18 10.225 10.225
252 1 10.225 8.18 10.225
253 1 8.18 8.18 12.27
254 1 10.225 10.225 12.27
255 1 8.18 10.225 14.315
256 1 10.225 8.18 14.315
257 1 8.18 8.18 16.36
258 1 10.225 10.225 16.36
259 1 8.18 10.225 18.405
260 1 10.225 8.18 18.405
261 1 8.18 12.27 0.0
262 1 10.225 14.315 0.0
263 1 8.18 14.315 2.045
264 1 10.225 12.27 2.045
265 1 8.18 12.27 4.09
266 1 10.225 14.315 4.09
267 1 8.18 14.315 6.135
268 1 10.225 12.27 6.135
269 1 8.18 12.27 8.18
270 1 10.225 14.315 8.18
271 1 8.18 14.315 10.225
272 1 10.225 12.27 10.225
273 1 8.18 12.27 12.27
274 1 10.225 14.315 12.27
275 1 8.18 14.315 14.315
276 1 10.225 12.27 14.315
277 1 8.18 12.27 16.36
278 1 10.225 14.315 16.36
279 1 8.18 14.315 18.405
280 1 10.225 12.27 18.405
281 1 8.18 16.36 0.0
282 1 10.225 18.405 0.0
283 1 8.18 18.405 2.045
284 1 10.225 16.36 2.045
285 1 8.18 16.36 4.09
286 1 10.225 18.405 4.09
287 1 8.18 18.405 6.135
288 1 10.225 16.36 6.135
289 1 8.18 16.36 8.18
290 1 10.225 18.405 8.18
291 1 8.18 18.405 10.225
292 1 10.225 16.36 10.225
293 1 8.18 16.36 12.27
294 1 10.225 18.405 12.27
295 1 8.18 18.405 14.315
296 1 10.225 16.36 14.315
297 1 8.18 16.36 16.36
298 1 10.225 18.405 16.36
299 1 8.18 18.405 18.405
300 1 10.225 16.36 18.405
301 1 12.27 0.0 0.0
302 1 14.315 2.045 0.0
303 1 12.27 2.045 2.045
304 1 14.315 0.0 2.045
305 1 12.27 0.0 4.09
306 1 14.315 2.045 4.09
307 1 12.27 2.045 6.135
308 1 14.315 0.0 6.135
309 1 12.27 0.0 8.18
310 1 14.315 2.045 8.18
311 1 12.27 2.045 10.225
312 1 14.315 0.0 10.225
313 1 12.27 0.0 12.27
314 1 14.315 2.045 12.27
315 1 12.27 2.045 14.315
316 1 14.315 0.0 14.315
317 1 12.27 0.0 16.36
318 1 14.315 2.045 16.36
319 1 12.27 2.045 18.405
320 1 14.315 0.0 18.405
321 1 12.27 4.09 0.0
322 1 14.315 6.135 0.0
323 1 12.27 6.135 2.045
324 1 14.315 4.09 2.045
325 1 12.27 4.09 4.09
326 1 14.315 6.135 4.09
327 1 12.27 6.135 6.135
328 1 14.315 4.09 6.135
329 1 12.27 4.09 8.18
330 1 14.315 6.135 8.18
331 1 12.27 6.135 10.225
332 1 14.315 4.09 10.225
333 1 12.27 4.09 12.27
334 1 14.315 6.135 12.27
335 1 12.27 6.135 14.315
336 1 14.315 4.09 14.315
337 1 12.27 4.09 16.36
338 1 14.315 6.135 16.36
339 1 12.27 6.135 18.405
340 1 14.315 4.09 18.405
341 1 12.27 8.18 0.0
342 1 14.315 10.225 0.0
343 1 12.27 10.225 2.045
344 1 14.315 8.18 2.045
345 1 12.27 8.18 4.09
346 1 14.315 10.225 4.09
347 1 12.27 10.225 6.135
348 1 14.315 8.18 6.135
349 1 12.27 8.18 8.18
350 1 14.315 10.225 8.18
351 1 12.27 10.225 10.225
352 1 14.315 8.18 10.225
353 1 12.27 8.18 12.27
354 1 14.315 10.225 12.27
355 1 12.27 10.225 14.315
356 1 14.315 8.18 14.315
357 1 12.27 8.18 16.36
358 1 14.315 10.225 16.36
359 1 12.27 10.225 18.405
360 1 14.315 8.18 18.405
361 1 12.27 12.27 0.0
362 1 14.315 14.315 0.0
363 1 12.27 14.315 2.045
364 1 14.315 12.27 2.045
365 1 12.27 12.27 4.09
366 1 14.315 14.315 4.09
367 1 12.27 14.315 6.135
368 1 14.315 12.27 6.135
369 1 12.27 12.27 8.18
370 1 14.315 14.315 8.18
371 1 12.27 14.315 10.225
372 1 14.315 12.27 10.225
373 1 12.27 12.27 12.27
374 1 14.315 14.315 12.27
375 1 12.27 14.315 14.315
376 1 14.315 12.27 14.315
377 1 12.27 12.27 16.36
378 1 14.315 14.315 16.36
379 1 12.27 14.315 18.405
380 1 14.315 12.27 18.405
381 1 12.27 16.36 0.0
382 1 14.315 18.405 0.0
383 1 12.27 18.405 2.045
384 1 14.315 16.36 2.045
385 1 12.27 16.36 4.09
386 1 14.315 18.405 4.09
387 1 12.27 18.405 6.135
388 1 14.315 16.36 6.135
389 1 12.27 16.36 8.18
390 1 14.315 18.405 8.18
391 1 12.27 18.405 10.225
392 1 14.315 16.36 10.225
393 1 12.27 16.36 12.27
394 1 14.315 18.405 12.27
395 1 12.27 18.405 14.315
396 1 14.315 16.36 14.315
397 1 12.27 16.36 16.36
398 1 14.315 18.405 16.36
399 1 12.27 18.405 18.405
400 1 14.315 16.36 18.405
401 1 16.36 0.0 0.0
402 1 18.405 2.045 0.0
403 1 16.36 2.045 2.045
404 1 18.405 0.0 2.045
405 1 16.36 0.0 4.09
406 1 18.405 2.045 4.09
407 1 16.36 2.045 6.135
408 1 18.405 0.0 6.135
409 1 16.36 0.0 8.18
410 1 18.405 2.045 8.18
411 1 16.36 2.045 10.225
412 1 18.405 0.0 10.225
413 1 16.36 0.0 12.27
414 1 18.405 2.045 12.27
415 1 16.36 2.045 14.315
416 1 18.405 0.0 14.315
417 1 16.36 0.0 16.36
418 1 18.405 2.045 16.36
419 1 16.36 2.045 18.405
420 1 18.405 0.0 18.405
421 1 16.36 4.09 0.0
422 1 18.405 6.135 0.0
423 1 16.36 6.135 2.045
424 1 18.405 4.09 2.045
425 1 16.36 4.09 4.09
426 1 18.405 6.135 4.09
427 1 16.36 6.135 6.135
428 1 18.405 4.09 6.135
429 1 16.36 4.09 8.18
430 1 18.405 6.135 8.18
431 1 16.36 6.135 10.225
432 1 18.405 4.09 10.225
433 1 16.36 4.09 12.27
434 1 18.405 6.135 12.27
435 1 16.36 6.135 14.315
436 1 18.405 4.09 14.315
437 1 16.36 4.09 16.36
438 1 18.405 6.135 16.36
439 1 16.36 6.135 18.405
440 1 18.405 4.09 18.405
441 1 16.36 8.18 0.0
442 1 18.405 10.225 0.0
443 1 16.36 10.225 2.045
444 1 18.405 8.18 2.045
445 1 16.36 8.18 4.09
446 1 18.405 10.225 4.09
447 1 16.36 10.225 6.135
448 1 18.405 8.18 6.135
449 1 16.36 8.18 8.18
450 1 18.405 10.225 8.18
451 1 16.36 10.225 10.225
452 1 18.405 8.18 10.225
453 1 16.36 8.18 12.27
454 1 18.405 10.225 12.27
455 1 16.36 10.225 14.315
456 1 18.405 8.18 14.315
457 1 16.36 8.18 16.36
458 1 18.405 10.225 16.36
459 1 16.36 10.225 18.405
460 1 18.405 8.18 18.405
461 1 16.36 12.27 0.0
462 1 18.405 14.315 0.0
463 1 16.36 14.315 2.045
464 1 18.405 12.27 2.045
465 1 16.36 12.27 4.09
466 1 18.405 14.315 4.09
467 1 16.36 14.315 6.135
468 1 18.405 12.27 6.135
469 1 16.36 12.27 8.18
470 1 18.405 14.315 8.18
471 1 16.36 14.315 10.225
472 1 18.405 12.27 10.225
473 1 16.36 12.27 12.27
474 1 18.405 14.315 12.27
475 1 16.36 14.315 14.315
476 1 18.405 12.27 14.315
477 1 16.36 12.27 16.36
478 1 18.405 14.315 16.36
479 1 16.36 14.315 18.405
480 1 18.405 12.27 18.405
481 1 16.36 16.36 0.0
482 1 18.405 18.405 0.0
483 1 16.36 18.405 2.045
484 1 18.405 16.36 2.045
485 1 16.36 16.36 4.09
486 1 18.405 18.405 4.09
487 1 16.36 18.405 6.135
488 1 18.405 16.36 6.135
489 1 16.36 16.36 8.18
490 1 18.405 18.405 8.18
491 1 16.36 18.405 10.225
492 1 18.405 16.36 10.225
493 1 16.36 16.36 12.27
494 1 18.405 18.405 12.27
495 1 16.36 18.405 14.315
496 1 18.405 16.36 14.315
497 1 16.36 16.36 16.36
498 1 18.405 18.405 16.36
499 1 16.36 18.405 18.405
500 1 18.405 16.36 18.405
