LAMMPS data file via write_data, version 17 Apr 2024, timestep = 1000, units = metal

6400 atoms
1 atom types

-9.792698285132683 368.9473048411118 xlo xhi
0 14.44 ylo yhi
0 14.44 zlo zhi

Masses

1 63.546

Atoms # atomic

3 1 -9.655107257357452 1.7860825847461623 1.6353131625121542 0 0 0
5 1 -9.702345647272642 0.0002602982029600298 3.4547833409621806 0 0 0
6 1 -7.865212821600848 1.6269379839727356 3.5708763403036436 0 0 0
20 1 -7.637521811015747 3.5044359819952398 1.9481555751056039 0 0 0
21 1 -9.549908166617781 3.5177540540828676 3.6825125071208715 0 0 0
2 1 -7.646700979965924 1.676843633279834 0.11424741607935518 0 0 0
17 1 -9.441011377377368 3.6130338394313526 0.01784204277935538 0 0 0
67 1 -5.752615320517855 1.5742122778515342 1.6869466250049632 0 0 0
85 1 -5.812500208575678 3.5346194912422386 3.5504643073996567 0 0 0
70 1 -4.03109373399875 1.6096602592597269 3.6749901248153503 0 0 0
84 1 -3.8177511660232613 3.4913333895741303 1.8032537184551585 0 0 0
81 1 -5.8518515643362425 3.5847497344799875 0.1453744221872012 0 0 0
66 1 -3.920150709969355 1.7966209269827258 0.06903078408349116 0 0 0
149 1 -1.9926740849496656 3.486354903472253 3.7648760262679564 0 0 0
131 1 -1.9908181835225558 1.561518709404173 1.9316881872563674 0 0 0
145 1 -1.9511255469102737 3.4843497858075576 0.08417262592373 0 0 0
134 1 -0.11404767319529013 1.735822353309587 3.72424447825281 0 0 0
148 1 -0.06563686624047475 3.5574086188603626 1.9464644237488524 0 0 0
213 1 1.776041114462298 3.7350652654779695 3.6709375463736813 0 0 0
130 1 -0.031912669854947916 1.7155498502549307 0.13432123706489074 0 0 0
195 1 1.8140002043957433 1.8314325385841306 1.975231470919916 0 0 0
209 1 1.9432694271502038 3.4707645044744804 0.19189663034524157 0 0 0
198 1 3.4988626969509857 1.7823234751366348 3.8765605194415897 0 0 0
212 1 3.7451881373822626 3.5988980359487117 2.0996089590484313 0 0 0
259 1 5.4198849116662755 1.820031198924138 2.2252068538487446 0 0 0
277 1 5.421979843322286 3.5402191516188877 3.8703462408768976 0 0 0
273 1 5.4351303009573195 3.5090514422337336 0.09050679694819388 0 0 0
257 1 5.431642240483858 0.1439209273857063 0.22818343345483266 0 0 0
194 1 3.7437043913519736 1.8433005743586572 0.2709974218143999 0 0 0
193 1 1.8936087960227042 0.12329536676182619 0.10061006043133426 0 0 0
260 1 7.271579360222892 0.054348941459549625 2.057929148419841 0 0 0
262 1 7.166490512470284 1.7840762617230423 3.818071186442531 0 0 0
276 1 7.279115232520708 3.7645944328049192 1.9935093572415064 0 0 0
323 1 9.057166030806162 2.0033767477804285 2.117225581163519 0 0 0
341 1 9.16094073244814 3.619872301247555 3.843894586957033 0 0 0
321 1 9.234495408856008 0.1992704072528158 0.20603569843420497 0 0 0
258 1 7.322114496390998 1.8085982497811761 0.2832675591248601 0 0 0
325 1 9.17700052103862 0.004305856214685884 3.692689378626907 0 0 0
337 1 9.285532823880466 3.4853432104736752 0.228207556548526 0 0 0
326 1 11.090169065331018 1.8260805725965752 3.83947624286728 0 0 0
340 1 11.085043766086072 3.6784679732323577 2.093696628183635 0 0 0
387 1 12.957945423185226 1.87733662570739 2.0994497923655113 0 0 0
389 1 12.949640171132142 0.1739054957481936 3.9064736611218858 0 0 0
405 1 13.009835445758549 3.808397533479127 3.823645207298893 0 0 0
385 1 13.014251014775796 0.18264715752889357 0.1771792434681922 0 0 0
322 1 11.212053656320123 1.8564425679106973 0.2869870294009556 0 0 0
401 1 13.090554654772182 3.601222441704527 0.2675011830298393 0 0 0
324 1 11.178807893232023 0.12612485133108464 1.9897332440262383 0 0 0
388 1 14.8213955978331 0.014686079806796593 2.1464685540865363 0 0 0
390 1 14.850631051295203 1.8658344555041657 3.9268959885686017 0 0 0
404 1 14.824244677612105 3.887323325277982 1.9426373590846497 0 0 0
451 1 16.65121672990927 1.8406928824145634 1.980902399779268 0 0 0
469 1 16.534644442289757 3.7348747843975283 3.8024995811927895 0 0 0
453 1 16.708513281088326 0.013961207009735625 3.8384585423459807 0 0 0
449 1 16.632738708105038 0.06747248754641784 0.1537015080943302 0 0 0
465 1 16.727917417704536 3.662875444185159 0.19409178914169264 0 0 0
386 1 14.986427626752814 1.8860803360612437 0.1566080539830387 0 0 0
454 1 18.60339543260913 1.8256297550937388 3.952915275363268 0 0 0
468 1 18.433747886924646 3.654338807778705 2.0404436896749516 0 0 0
515 1 20.4533263869694 1.760986141849213 2.035129519791842 0 0 0
517 1 20.433762253352427 0.06559547564166665 3.72930584671907 0 0 0
533 1 20.57705513449128 3.49755915565486 3.8968768013616284 0 0 0
452 1 18.490344498569502 0.13434582479949933 2.013971412134609 0 0 0
513 1 20.404301032720166 0.09639247738134192 0.11406777042029537 0 0 0
529 1 20.397354264557624 3.7176984574270135 0.21988290836889163 0 0 0
450 1 18.476176833186937 1.8099293778981638 0.2041069243331233 0 0 0
516 1 22.483351170154457 0.03915775664882584 2.0982091969262906 0 0 0
518 1 22.673236389592166 1.8315669453093493 3.8245011004881313 0 0 0
532 1 22.609759873079817 3.6988961948962737 2.0189644180205124 0 0 0
579 1 24.405108396770725 1.755628859421128 1.9646729918480474 0 0 0
597 1 24.44671793838396 3.694992518385814 3.884705927053073 0 0 0
581 1 24.39000614414989 0.0003937692302020679 3.9746164599705702 0 0 0
514 1 22.3372163319853 1.8367591257755227 0.36140510342525545 0 0 0
577 1 24.430091591496677 0.13746344932272214 0.22697412367179381 0 0 0
593 1 24.482685368605825 3.595517915240172 0.2542362075437445 0 0 0
582 1 26.232015853714582 1.7602137329586398 3.8169736278382063 0 0 0
596 1 26.35026498622182 3.636523554275743 2.0902312992803407 0 0 0
643 1 28.089266689617936 1.6661859446989131 2.0221018473348535 0 0 0
645 1 28.407640731308195 0.10283523378221042 3.913747209157474 0 0 0
661 1 28.372392716023278 3.6093636064601786 3.809224338766523 0 0 0
641 1 28.39324271089317 0.026445964969672595 0.13776502657629364 0 0 0
657 1 28.241349109192903 3.4046141093088123 0.23908195743057997 0 0 0
578 1 26.36850004547447 1.8125873682994675 0.18194361296575284 0 0 0
646 1 30.114796705720114 1.9685145139765148 3.802752143435887 0 0 0
660 1 30.132086990750594 3.4480462749132905 1.8662939775049767 0 0 0
707 1 32.21266973098442 1.8923667789393923 1.9813757547391158 0 0 0
725 1 32.094151617201355 3.8206556383704795 3.748149877137495 0 0 0
709 1 31.986011923010274 0.16579184141027167 3.7785753511569835 0 0 0
642 1 30.32344223377427 1.8279207187557258 0.14390175904448071 0 0 0
705 1 32.091883900393995 0.1096279574408124 0.15686247940247042 0 0 0
644 1 30.187446483455112 0.05878292850016559 2.019292222914254 0 0 0
721 1 32.10951398740708 3.683104302525381 0.09072455047944458 0 0 0
710 1 33.90270080713068 2.1324471708240553 3.763737657045571 0 0 0
724 1 33.986273183732834 3.958654363305535 1.9811531380763536 0 0 0
708 1 33.93949896709216 0.03566492358303143 1.8835657379425903 0 0 0
771 1 35.56932045615213 2.045048544382359 2.118481191664302 0 0 0
773 1 35.788630570905724 0.1842717212946967 3.797210713625853 0 0 0
789 1 35.86271145908824 4.017179381488262 3.81461314128061 0 0 0
706 1 33.93969250971718 1.7708915517858643 0.09059986192125008 0 0 0
769 1 35.77984426345116 0.17835421493376286 0.28380776726696244 0 0 0
785 1 35.721149764069565 3.669061978311531 0.1833250043059351 0 0 0
774 1 37.75876452035625 2.0454283133186633 3.9588378603688663 0 0 0
772 1 37.7011681926814 0.38498477558644467 2.0557450131867183 0 0 0
788 1 37.60959426944162 3.704895131471311 2.1018381517046603 0 0 0
835 1 39.59970042093462 1.9643603568411088 1.9727280595123757 0 0 0
853 1 39.615938493608006 3.8047068652212492 3.618905499317411 0 0 0
837 1 39.53537674109796 0.17372000399753498 3.7763705592207018 0 0 0
770 1 37.60057288285941 1.9395235449753856 0.1594574583590469 0 0 0
849 1 39.64715923959294 3.790977628542259 0.050505320440478105 0 0 0
833 1 39.5898413411789 0.2083781543042387 0.12345455966514626 0 0 0
852 1 41.55994291815585 3.9248710067587 2.011926852964717 0 0 0
838 1 41.58728091609719 2.2292365217315404 3.788007513965395 0 0 0
836 1 41.665257557265754 0.2105346600533479 2.138065119279339 0 0 0
899 1 43.405000530157565 2.025620960666919 1.9050271943467896 0 0 0
917 1 43.43235644171925 3.7682193401949493 3.528537589831371 0 0 0
901 1 43.41881653286649 0.3379873844935994 3.8826193592303917 0 0 0
897 1 43.38816755203887 0.05174672391838059 0.33731227165872685 0 0 0
913 1 43.45095432369357 3.6911605600774235 0.2046119988653217 0 0 0
834 1 41.46114151934967 1.9947285937568102 0.3004522058438953 0 0 0
902 1 45.29137505516715 1.9994240310871827 3.7800911169990807 0 0 0
900 1 45.372004178816034 0.18917562711985517 2.088179043584594 0 0 0
916 1 45.345050773864486 3.673065918062262 1.8650454460759358 0 0 0
963 1 47.21936791979134 1.992401258342686 2.0685450064506687 0 0 0
981 1 47.31788338930716 3.937926506974161 3.7622090108283865 0 0 0
965 1 47.167337132976535 0.179128350444053 3.9031451909403208 0 0 0
977 1 47.138282601767834 3.681023435151223 0.14943400763026884 0 0 0
961 1 47.32781105353246 0.37587598078775214 0.3690816423963715 0 0 0
898 1 45.36408551963817 1.8705357302706769 0.10941670122269363 0 0 0
966 1 49.224226203761006 2.103366136673478 3.8026906946636343 0 0 0
980 1 49.17246873913099 3.907492422729515 2.0288698270345216 0 0 0
964 1 49.15224239258194 0.22299632393209223 2.175284453576949 0 0 0
1027 1 51.10862094744194 1.9353642642166062 2.010612294444217 0 0 0
1045 1 51.05461570280874 3.7995954539327266 3.6942063196750525 0 0 0
1029 1 51.06073512641025 0.05133474605098384 3.944981035113963 0 0 0
1041 1 50.92352337282424 3.92158880298564 0.28614344564581334 0 0 0
962 1 49.254110905299136 2.1611227581924215 0.4017049270897308 0 0 0
1025 1 50.87904535214906 0.11919258560618856 0.3005046255019068 0 0 0
1030 1 52.708396700617705 1.897171582968367 3.7993580482114564 0 0 0
1044 1 52.84131240093301 3.6906060001597556 2.0369942174368605 0 0 0
1026 1 52.85541743237993 1.9717284079913533 0.2614160337787901 0 0 0
1091 1 54.6930751854875 1.9721054515781897 2.238733909316865 0 0 0
1109 1 54.57182018489934 3.920216909849945 3.9050201785054064 0 0 0
1093 1 54.72457440838567 0.07000057315800735 3.8494096003787206 0 0 0
1089 1 54.82529492545069 0.26428043083632013 0.3363416291641787 0 0 0
1105 1 54.64685430069233 3.7923924300183813 0.3129057075723225 0 0 0
1094 1 56.507386597299735 2.1119195381011764 3.8426726502681543 0 0 0
1108 1 56.59706024798781 3.9390731785275293 1.9905306263691582 0 0 0
1092 1 56.625833143354555 0.09540067222182376 2.1838458838417587 0 0 0
1155 1 58.560277841936866 1.9196450192619752 1.970969657464204 0 0 0
1173 1 58.25243225020039 3.9453540045726343 3.806794259353842 0 0 0
1157 1 58.41426922573404 0.29126127622161996 3.973612703857632 0 0 0
1169 1 58.52998891624986 3.8354134266752333 0.2612033987140274 0 0 0
1090 1 56.700807800666766 2.1431066582641822 0.42783968014296375 0 0 0
1153 1 58.60039362781113 0.1406962300757476 0.12022784181848414 0 0 0
1158 1 60.35522752063341 2.041860421875096 3.5839283245479696 0 0 0
1172 1 60.41160488902918 3.959875854708278 1.9729389301544729 0 0 0
1219 1 62.4000813410305 1.9372061080777039 1.9281539855849315 0 0 0
1237 1 62.22621845446344 3.841222539336219 3.5961338171451276 0 0 0
1221 1 62.303971758304655 0.12521081137878026 3.813348178969902 0 0 0
1233 1 62.32927222738202 3.937174974848809 0.08522681042042148 0 0 0
1156 1 60.525461433005944 0.1500137905248539 1.8959713156414324 0 0 0
1154 1 60.441732399762444 2.0694236803291015 0.201682839106051 0 0 0
1217 1 62.297428665996904 0.27064564901228927 0.17162993360053969 0 0 0
1222 1 64.13881343429802 2.10525965465204 3.5856396733994345 0 0 0
1236 1 64.1883294820109 3.8632205668852446 1.7344448451922705 0 0 0
1218 1 64.21809356708509 1.9826816652760026 0.07992827751364627 0 0 0
1283 1 66.0784503577573 2.2263031390050507 1.8558562176042779 0 0 0
1301 1 66.13106831998233 3.8684535735042833 3.6792381385774418 0 0 0
1285 1 66.27136721154963 0.25598137225841805 3.638985798803646 0 0 0
1220 1 64.26204360086085 0.3061100787338748 1.7231450828196755 0 0 0
1286 1 68.23496004421065 1.923169896842533 3.5188059298246417 0 0 0
1300 1 68.07816152897014 4.010491127861759 2.0753684713073093 0 0 0
1284 1 68.12077477974519 0.1988866055810541 1.7289293908537615 0 0 0
1347 1 70.1077439022052 2.3042234055305277 1.8343829038105066 0 0 0
1365 1 70.04667212932713 3.9940988881647717 3.580015876140883 0 0 0
1349 1 70.07766547300717 0.24241927780807554 3.572696170377963 0 0 0
1282 1 68.01441685738105 2.244032643235674 0.08199804243898612 0 0 0
1345 1 70.15012150949994 0.18227261174615045 0.279269020331942 0 0 0
1361 1 69.85093845591358 4.002533258738555 0.1508451355237074 0 0 0
1350 1 72.04268161206018 2.1506766506924446 3.5419427929867173 0 0 0
1364 1 71.90514682135428 4.024461957590811 1.8565194823373372 0 0 0
1348 1 71.95091125045755 0.2323839151514254 1.9248373819370899 0 0 0
1411 1 73.86092321229593 2.1767730697380356 1.8156825962486562 0 0 0
1429 1 73.85299559326042 3.8941683236402618 3.5270725309429585 0 0 0
1413 1 73.87725695159592 0.35385990654867755 3.7109432051793907 0 0 0
1346 1 71.95766906711815 2.088810739738764 0.10293282058692131 0 0 0
1425 1 73.70795653237992 3.9939914181690654 0.014847591464644719 0 0 0
1414 1 75.7621859938216 1.900343134176536 3.684124473672158 0 0 0
1428 1 75.70592621697305 3.941374323938173 1.7698099449830615 0 0 0
1475 1 77.4781876076361 2.215576051288344 1.7158979888871664 0 0 0
1493 1 77.4683827545719 3.9142594261859136 3.688816446120138 0 0 0
1477 1 77.6223822389545 0.3255870711811217 3.6651202693706044 0 0 0
1473 1 77.63791944112474 0.2946949918655429 0.03073052539277545 0 0 0
1412 1 75.7004147140711 0.3259719541667615 1.6775969149331995 0 0 0
1478 1 79.51497408972459 2.1873306184390366 3.548314667072403 0 0 0
1492 1 79.38350315853108 3.9805322520574133 1.7452829474417078 0 0 0
1476 1 79.42878500477437 0.39724703294278607 1.913479497557568 0 0 0
1474 1 79.43765994403495 2.157396066011338 0.11035377563075024 0 0 0
1539 1 81.2720548977365 2.127306502031536 1.787428992814456 0 0 0
1541 1 81.52442080346461 0.3096394223614811 3.4856868612975185 0 0 0
1557 1 81.4971846947892 4.06201045458594 3.5328780940603535 0 0 0
1542 1 83.24000374324169 2.1071129852770674 3.5074867261910687 0 0 0
1556 1 83.20151450253728 4.016249018320597 1.8223526210113268 0 0 0
1540 1 83.30575903156254 0.296287142409176 1.5359953892554974 0 0 0
1621 1 85.19789815331619 3.90933743115843 3.4705411028430015 0 0 0
1605 1 85.09182774901622 0.18837489802103402 3.5952057301433427 0 0 0
1603 1 85.04839814690307 2.1004254222079886 1.700548936857594 0 0 0
1606 1 87.07642409477211 2.0230970189342474 3.422567183658507 0 0 0
1620 1 86.97519648816217 3.791289622958137 1.7729428577566269 0 0 0
1604 1 86.98437351335114 0.29996235321692805 1.5267994893364136 0 0 0
1667 1 89.10045719525858 2.0510678548405186 1.7378401109837112 0 0 0
1685 1 89.18495685079942 3.8596165219660543 3.4355667023758545 0 0 0
1669 1 89.08357780541894 0.24693311141296903 3.408614773225555 0 0 0
1670 1 91.01283040249923 2.0981787771482607 3.59723727863013 0 0 0
1684 1 91.05455803160797 3.9426757132855 1.5776118317290624 0 0 0
1668 1 90.95534369813122 0.3048254241940972 1.6730627158665368 0 0 0
1731 1 92.91036116831583 2.1448331573499475 1.722071664706168 0 0 0
1733 1 92.70924047976399 0.33897339059862824 3.5228122718424366 0 0 0
1749 1 92.7915850024288 3.897933557409934 3.530675154626478 0 0 0
1729 1 92.91634355313059 0.3080517445373015 0.10399722021052044 0 0 0
1734 1 94.60074277496004 1.9830338107881746 3.5783201056085447 0 0 0
1748 1 94.73301795085227 3.9166574348333443 1.9558980909576076 0 0 0
1732 1 94.79197966768908 0.1674695627655049 1.7579652991703278 0 0 0
1795 1 96.69734451081389 1.9705056490472337 1.9801724427973901 0 0 0
1813 1 96.7438909667004 3.8169995034736974 3.6179488566547353 0 0 0
1797 1 96.66782567016561 0.11685152253302866 3.6351983920899977 0 0 0
1809 1 96.67176297136213 3.7954126788425127 0.06648301247508656 0 0 0
1798 1 98.6099076459819 1.8580325579370656 3.582630623275575 0 0 0
1812 1 98.58100615399603 3.7737021169326703 1.8704062873475167 0 0 0
1796 1 98.49869193755906 0.22415225229229135 1.797272745054145 0 0 0
1859 1 100.47685352952757 1.8284602721208334 1.7139802276365967 0 0 0
1877 1 100.54348850493115 3.578173976313029 3.4008383988114965 0 0 0
1861 1 100.49491053406148 0.15971068323654175 3.5637160132122534 0 0 0
1876 1 102.39767002747392 3.8053355363983457 1.6142552235617444 0 0 0
1860 1 102.53378775739462 0.15848837309197192 1.7315542803540973 0 0 0
1862 1 102.44961027656598 1.852877846050195 3.6886005931016816 0 0 0
1923 1 104.22361572428237 1.858341012869901 1.7483593579099221 0 0 0
1941 1 104.27689994073391 3.737664025919577 3.464927632727889 0 0 0
1925 1 104.2353324494051 0.11321819960818745 3.5948134603565776 0 0 0
1926 1 106.19711683331211 2.0209527167382415 3.528396614880276 0 0 0
1940 1 106.21755366323893 3.6931130773747536 1.6794727965526506 0 0 0
2005 1 108.05966232963718 3.7150115633404477 3.586553915040475 0 0 0
1987 1 108.03290800194705 1.9691716953853238 1.6639629975720942 0 0 0
1989 1 108.04112947237071 0.1939472278695985 3.59410860170481 0 0 0
1990 1 109.95456241667739 1.9291480792908322 3.457301806054906 0 0 0
2004 1 110.0052920663915 3.823833834597174 1.693918931481861 0 0 0
1988 1 109.8844399393601 0.17854854566572737 1.622960830906547 0 0 0
1924 1 106.21774321915214 0.26113212319437734 1.6748477527769312 0 0 0
2051 1 111.77508515505693 1.9549044807077964 1.607696983871251 0 0 0
2069 1 111.87226946723824 3.7514880703272357 3.418070025274071 0 0 0
2053 1 111.94301696893852 0.20024112698947386 3.331982911935257 0 0 0
2054 1 113.78088890513447 2.013111333794385 3.464643330631574 0 0 0
2068 1 113.6644472319023 3.6123394528515114 1.3951343746901443 0 0 0
2052 1 113.83065105008092 0.17405391834986067 1.5576994603622012 0 0 0
2115 1 115.76170284999273 1.942595079549662 1.5851273113808846 0 0 0
2133 1 115.68099523834529 3.590842265718924 3.3984010196970327 0 0 0
2117 1 115.56095195374262 0.31174709107896675 3.4661409378391306 0 0 0
2118 1 117.63358407239234 2.0280384177466275 3.5054598370575296 0 0 0
2132 1 117.44338646737123 3.8561207907783595 1.5697076327903259 0 0 0
2116 1 117.499482215909 0.17779226546150798 1.553402361452151 0 0 0
2197 1 119.33182221012498 3.872528072821737 3.537246811398599 0 0 0
2179 1 119.45721315366119 2.171452941063193 1.672235179677654 0 0 0
2182 1 121.41054556403448 2.1246269769136013 3.4912986220849036 0 0 0
2196 1 121.3794110801559 3.733376892853985 1.665250467611337 0 0 0
2180 1 121.46898448850261 0.45818552572099547 1.7018108166328973 0 0 0
2181 1 119.45074250445789 0.22521302741161714 3.439007872494817 0 0 0
2261 1 123.36201881640088 3.7587417640054466 3.3259583343350747 0 0 0
2245 1 123.36271789683428 0.3662328167714589 3.3841599177598347 0 0 0
2243 1 123.49687009015193 1.9606874897720767 1.4627799109723467 0 0 0
2246 1 125.1912105170706 1.9857174415784902 3.4371414934387667 0 0 0
2260 1 125.1093407456506 3.8795513332107543 1.5669303193147717 0 0 0
2244 1 125.36279474530104 0.11731346049817531 1.6318806269436827 0 0 0
2325 1 127.09052047816547 3.8603208462698446 3.619964331645862 0 0 0
2309 1 127.03446936147989 0.12934182013853784 3.4555565859605983 0 0 0
2307 1 127.0279919379635 1.9632062621342883 1.7782380808754652 0 0 0
2310 1 128.87612977869196 1.9421921488840521 3.7723131984792246 0 0 0
2324 1 128.9423576797559 3.52234024922203 1.8680343031345026 0 0 0
2308 1 128.92798625938804 0.033046090440330605 1.6684806650659862 0 0 0
2306 1 129.08584834439858 1.7809150036462131 0.03740166640646945 0 0 0
2371 1 130.84806736837294 1.7704069764899035 1.7341805490151465 0 0 0
2389 1 130.83867851961048 3.6033265275765745 3.5515706256583144 0 0 0
2373 1 130.88004554718182 0.11564385563451048 3.5612124351860373 0 0 0
2374 1 132.83447000102564 1.8112582219555058 3.4509981851332485 0 0 0
2388 1 132.83099407374203 3.673687930233179 1.7243950557891536 0 0 0
2372 1 132.7536306157521 0.07919613645950652 1.6312607754194426 0 0 0
2435 1 134.6703470028967 1.947484954199671 1.7389643811112636 0 0 0
2453 1 134.80827143753837 3.7069185772545956 3.5067371328301067 0 0 0
2438 1 136.5912262669623 1.8146869237709304 3.3724886434113115 0 0 0
2452 1 136.62340972502156 3.8443348587098845 1.698221750829658 0 0 0
2436 1 136.697818636346 0.025923172423006693 1.5962860442343565 0 0 0
2437 1 134.75911366665125 0.002161756726678732 3.4502712279521983 0 0 0
2434 1 136.6171654552698 1.9488632796604763 0.03259390322168048 0 0 0
2499 1 138.5922799275156 2.028838600537474 1.7059871703008889 0 0 0
2517 1 138.61730230132298 3.777801775444395 3.463527723982545 0 0 0
2501 1 138.4000883910267 0.05047911771441915 3.628729235635671 0 0 0
2502 1 140.40500120925287 1.846612547859349 3.6952040286653576 0 0 0
2500 1 140.32381451515428 0.12757137674793817 1.8865706080575178 0 0 0
2516 1 140.53236592404141 3.7402640959065048 1.740409784686744 0 0 0
2563 1 142.36224569814286 2.0127938916193617 1.9234002965997485 0 0 0
2581 1 142.28228918459698 3.7644147905476006 3.5270057543030457 0 0 0
2565 1 142.3739691687963 0.1472248567238592 3.84121215316926 0 0 0
2566 1 144.2100634759932 2.0171933186726014 3.6656420055787655 0 0 0
2580 1 144.3607808177423 3.865286930066148 1.810863797269646 0 0 0
2564 1 144.3025353501147 0.3495134891728451 1.838051250419251 0 0 0
2577 1 142.52782694440117 3.8054444514496235 0.12178203433742132 0 0 0
2627 1 146.24240851830908 2.1535138225494848 1.8018402146400139 0 0 0
2645 1 146.2331893349674 3.729690676999674 3.718031041812262 0 0 0
2629 1 146.12319048662138 0.34903346574127614 3.515121326823459 0 0 0
2630 1 148.08493437747816 1.930494335730485 3.692636599204176 0 0 0
2644 1 148.0666151526752 3.869489352723723 1.744871056451291 0 0 0
2628 1 148.1347794163133 0.41124190284528644 1.8730963409464245 0 0 0
2691 1 150.04419389899013 2.100544525419666 1.8005337983906802 0 0 0
2709 1 150.029451491003 3.947948320207294 3.466603039856329 0 0 0
2693 1 150.3630108968407 0.19151977430289283 3.637279536158976 0 0 0
2694 1 152.08707922330782 2.036651345037815 3.561419299402731 0 0 0
2708 1 151.94834544255335 3.976320865915274 1.9299201414558205 0 0 0
2692 1 151.98578172856028 0.341914036270399 1.8359008746844538 0 0 0
2689 1 150.1299074290432 0.3426180023516646 0.13550477949725936 0 0 0
2755 1 153.9584977402388 2.141430549481859 1.732894179970032 0 0 0
2773 1 153.97056113100973 3.8429695833324957 3.435021555737472 0 0 0
2757 1 153.98404367672987 0.18209851775795258 3.5897079673931898 0 0 0
2758 1 155.824001358217 2.055653736197382 3.5697155463881947 0 0 0
2772 1 155.82508346174112 4.02218867300824 1.9599791853163562 0 0 0
2756 1 155.69397307521876 0.25833098805810223 1.8790275740574194 0 0 0
2753 1 153.76126863537164 0.2939868819862072 0.003465849841862368 0 0 0
2769 1 153.95362876284622 3.986633834796838 0.07789794717439548 0 0 0
2754 1 155.7937192617104 2.1163938565890628 0.07399975233217226 0 0 0
2819 1 157.55457057012617 2.04670798570127 1.8468305517583723 0 0 0
2837 1 157.6629465055148 3.906495940679845 3.533320951177121 0 0 0
2817 1 157.6257971956775 0.3979602596486662 0.06108333274266234 0 0 0
2821 1 157.8678038906988 0.17379454390788276 3.8256906988127684 0 0 0
2822 1 159.49181187338192 2.078272152037637 3.534759719364383 0 0 0
2836 1 159.68851451887718 3.7390579051287265 1.6792333708581364 0 0 0
2820 1 159.68190721782963 0.25694451424221243 1.7205530443907666 0 0 0
2833 1 157.7663142903719 3.9334493039672336 0.1683756978362618 0 0 0
2883 1 161.47619249122795 2.0847142204165 1.7641446326432806 0 0 0
2901 1 161.43273508029006 3.7211210552575213 3.627092182853533 0 0 0
2885 1 161.299701135009 0.3381949313631484 3.589317003951019 0 0 0
2886 1 163.44162617854195 2.0536948684928826 3.554575426779333 0 0 0
2900 1 163.4987799303777 3.8270763731315585 1.690618126528361 0 0 0
2884 1 163.25771670901298 0.16179709682020285 1.807322433439177 0 0 0
2947 1 165.16118495248477 1.8629669176042054 1.7119626777044004 0 0 0
2965 1 165.36967509497845 3.7926287106855656 3.597988887611249 0 0 0
2949 1 165.37381646891095 0.10260484320380078 3.5869561161260735 0 0 0
2950 1 167.06476200003075 2.078528659726434 3.6531591097359475 0 0 0
2964 1 167.22877801171552 3.8220058576592635 1.7847215000710484 0 0 0
2948 1 167.30577965891277 0.26689876443971655 1.8002049408321334 0 0 0
2946 1 167.2226118390496 2.187990854263406 0.12035963821984673 0 0 0
3011 1 169.19565929465426 2.0919456106254204 1.7604242652716229 0 0 0
3029 1 169.18270313813466 3.8729071136246063 3.436550678253849 0 0 0
3013 1 169.06808255798367 0.28868681792890305 3.6785870343821854 0 0 0
3014 1 171.05627720899608 2.062510607328558 3.619685691246954 0 0 0
3028 1 171.1890808369623 3.8998172937336704 1.806394247135311 0 0 0
3012 1 170.81527318467352 0.34210864386320305 1.858849123257516 0 0 0
3010 1 171.1590889630815 2.097071453232424 0.12869301951019763 0 0 0
3025 1 169.28694216309324 3.8272386906018845 0.05776836414445731 0 0 0
3075 1 172.9123129014451 1.9328667939041069 1.8143437011975665 0 0 0
3093 1 172.8893447482451 3.7952344045346043 3.63300834591013 0 0 0
3078 1 174.80522555254703 1.9860224119193208 3.6091617310688036 0 0 0
3092 1 174.7650807615223 3.864396528031348 1.787140473257765 0 0 0
3076 1 174.79009972063852 0.11548385101120259 1.8082194831385747 0 0 0
3077 1 172.83063694028198 0.38167721390129145 3.580624552540302 0 0 0
3073 1 172.85316306954365 0.11461213952227634 0.03533877923391433 0 0 0
3089 1 172.97572977450835 3.7717484615839405 0.09942748033141335 0 0 0
3074 1 174.78369776544332 1.9581250504684202 0.11389587458659015 0 0 0
3139 1 176.62429283439883 1.7852221423543004 1.7113157990564227 0 0 0
3157 1 176.63619311904512 3.7486840664150125 3.4131852530494338 0 0 0
3142 1 178.70911783076158 2.0693068139423683 3.6634091206872053 0 0 0
3156 1 178.61184156370808 3.7316883597853248 1.7070573034499308 0 0 0
3141 1 176.6713348177031 0.15725737239755777 3.608498652136781 0 0 0
3140 1 178.5172896055024 0.36077683005717787 1.8234803283368035 0 0 0
3153 1 176.81554812129292 3.8180412726122754 0.06046041301535802 0 0 0
3203 1 180.65991116031583 1.9181126313202774 1.6943574503053227 0 0 0
3221 1 180.6529076404779 3.750642840299228 3.377930634354498 0 0 0
3205 1 180.42791197779738 0.21186290700959715 3.603446680228337 0 0 0
3206 1 182.6436203438299 2.1613354475077617 3.308142745470355 0 0 0
3220 1 182.2784163566665 3.867556466751595 1.5674479357990725 0 0 0
3204 1 182.57376216612613 0.34080918713757646 1.6320406232613844 0 0 0
3267 1 184.60790368415607 2.1533507278147654 1.5481426991589187 0 0 0
3285 1 184.49007264720277 3.9478239627048275 3.3390747475939295 0 0 0
3269 1 184.5107078461752 0.4534641256533652 3.36326861837548 0 0 0
3270 1 186.42237238338342 2.191278349793473 3.5147393774147333 0 0 0
3284 1 186.40395763673126 4.003381073911351 1.5828825629647827 0 0 0
3268 1 186.55184071635608 0.3176259062579505 1.7296679424421 0 0 0
3331 1 188.2118982081844 2.297693574582147 1.6593950239582755 0 0 0
3349 1 188.21993766491886 3.90554680537137 3.6313814703923137 0 0 0
3333 1 188.18312268038616 0.3078791293962656 3.5458695427069524 0 0 0
3334 1 190.04332745546216 2.070636653062639 3.57805483601947 0 0 0
3348 1 190.031674431431 4.151921969238688 1.7591576640659237 0 0 0
3332 1 190.2198762161287 0.35075917363836423 1.842197095417609 0 0 0
3330 1 190.03307480782888 2.309979218328933 0.15838536356670535 0 0 0
3395 1 192.02172560787992 2.1253056489787814 1.8598239677903199 0 0 0
3413 1 191.947364164174 3.864058178440823 3.452220639370059 0 0 0
3397 1 192.12935025967957 0.4107665125201731 3.6851978375166525 0 0 0
3398 1 194.1003037114342 2.1058158161649208 3.3026180389155706 0 0 0
3412 1 193.91491421119844 3.9702206274174237 1.7375346885876164 0 0 0
3396 1 193.93396145799198 0.26316411798775846 1.7847780120300258 0 0 0
3409 1 191.89212816566473 4.037933476226614 0.19983654318976854 0 0 0
3393 1 191.90155345412097 0.441134796361336 0.062306151259317294 0 0 0
3459 1 195.88303520920815 1.907575627782075 1.5406486408342868 0 0 0
3477 1 195.92431406220118 3.8677981407326976 3.3331667430055925 0 0 0
3461 1 195.8745959738093 0.25969810692075945 3.4990063224930177 0 0 0
3462 1 197.7983945454825 1.9144798171960693 3.3784827577065304 0 0 0
3476 1 197.67240146690918 3.737394027494667 1.5224121895267326 0 0 0
3460 1 197.66626994923686 0.21134802965019533 1.5561589042122363 0 0 0
3523 1 199.79726172247905 1.8747406556270776 1.7676513976627857 0 0 0
3541 1 199.64007470992573 3.782969630248922 3.461872348248087 0 0 0
3526 1 201.7793510298142 1.8876823280042423 3.495609374022597 0 0 0
3540 1 201.55160797081254 3.682451875265328 1.6560734073347667 0 0 0
3525 1 199.72860880622855 0.018842713781706797 3.6427516454342226 0 0 0
3524 1 201.62533170815624 0.05874036908295349 1.6475501815437175 0 0 0
3587 1 203.61108353115162 1.8776113104932939 1.6738201370550805 0 0 0
3605 1 203.49984005157097 3.6507508200347583 3.4527283782122233 0 0 0
3590 1 205.4342763713816 1.9483910144310983 3.6304875773119174 0 0 0
3604 1 205.4169290935874 3.5900409779907254 1.7215985639008 0 0 0
3588 1 205.25382192270067 0.09799579725987781 1.8464504191385862 0 0 0
3589 1 203.50687682512773 0.06233508250626671 3.609867856928944 0 0 0
3651 1 207.38328151305 1.7542362112733263 1.586102425420095 0 0 0
3669 1 207.1945862552842 3.603350156175651 3.589958287727827 0 0 0
3654 1 209.04946097645222 1.8694115611460616 3.5095460418203324 0 0 0
3668 1 209.13441047408008 3.6352042269978413 1.718049828720424 0 0 0
3653 1 207.33816378964315 0.14339048641220217 3.3379182443336606 0 0 0
3652 1 209.19184152550753 3.1555403065652854e-05 1.6520506419465861 0 0 0
3715 1 211.0322013731701 1.8008822269913194 1.5384846783764703 0 0 0
3733 1 211.10400680705047 3.7553359522107597 3.5996439170988754 0 0 0
3718 1 212.96398836942203 1.8348607947346827 3.5468269125570866 0 0 0
3732 1 212.9212947171537 3.747979372622204 1.6798893455523107 0 0 0
3716 1 213.12570315403286 0.14194800323125528 1.719869063255715 0 0 0
3717 1 210.81054631714653 0.041831395014107334 3.6011348139782946 0 0 0
3779 1 214.85435891611652 1.8702771972411258 1.6901666920279483 0 0 0
3797 1 214.75881157592653 3.730566781417153 3.5579019086596286 0 0 0
3782 1 216.68482646497503 1.8315249926148183 3.5821158855731174 0 0 0