LAMMPS data file via write_data, version 17 Apr 2024, timestep = 1000, units = metal

2000 atoms
1 atom types

-1.3329696396266844 71.70693430835536 xlo xhi
0 18.05 ylo yhi
0 18.05 zlo zhi

Masses

1 63.546

Atoms # atomic

3 1 -1.1795075712317569 2.1650358043420934 1.8793117890469662 0 0 0
6 1 0.822909121433126 1.862673296124644 3.6150470760395086 0 0 0
24 1 0.8708707033359011 3.6909925512671005 1.8347040521104339 0 0 0
25 1 -0.9614442221952254 3.7235135157742847 3.6850979562199306 0 0 0
4 1 0.7919343842571461 0.2671560625826208 1.853302499359794 0 0 0
5 1 -1.096422906046254 0.25120000800987263 3.7037347961450635 0 0 0
1 1 -1.2634454190247981 0.2033698107948327 0.026875305865918683 0 0 0
103 1 2.6412324036631545 1.9245239926578779 1.8575550333807553 0 0 0
125 1 2.645082480248505 3.782258863130975 3.567596596788772 0 0 0
106 1 4.4826488924622065 1.8691599127711092 3.5717493589545466 0 0 0
124 1 4.5080355764735405 3.7079616790767256 1.803781618705013 0 0 0
203 1 6.281048439182335 1.9465829510782167 1.8785302485887723 0 0 0
225 1 6.288441846326642 3.7423961204698384 3.557972430984765 0 0 0
104 1 4.602134179961394 0.015238524670855059 1.8447939842933634 0 0 0
205 1 6.2879835525017 0.1011118432986494 3.7101474434099417 0 0 0
101 1 2.746466126299395 0.1554669075565179 0.15982163381803421 0 0 0
221 1 6.3272715461031215 3.741000481697061 0.06727287603937039 0 0 0
102 1 4.515331970264119 1.894852435408292 0.11253285666743092 0 0 0
201 1 6.487884995760085 0.15526245388060606 0.14141085437205386 0 0 0
206 1 8.161418036575562 1.9462253574510784 3.6563183082208743 0 0 0
224 1 8.154208575195625 3.7175319406440708 1.7724522139560317 0 0 0
303 1 10.315743212825955 1.9871719303740516 1.6943780118312346 0 0 0
325 1 9.911768391511963 3.6711034002637457 3.4015680189345536 0 0 0
305 1 10.15066657141881 0.20757910031809046 3.675175765148598 0 0 0
202 1 8.310698151047488 1.9453262958722073 0.09112051890332049 0 0 0
204 1 8.202153373716042 0.1819202323609493 1.8529849473309317 0 0 0
306 1 11.974980753825891 1.9926291866056722 3.675652616900678 0 0 0
324 1 11.925816548832817 3.6958857181770486 1.8014841514750524 0 0 0
403 1 13.891312808561946 2.0668515421580644 1.859244619828508 0 0 0
425 1 13.971013534716258 3.7774175273972403 3.791249438675219 0 0 0
304 1 11.902550151760098 0.16935760380728154 1.806292884442162 0 0 0
405 1 13.755701818598117 0.16095394074092784 3.600093175075789 0 0 0
406 1 15.711207121279752 1.9201084227780536 3.768279300138594 0 0 0
424 1 15.828507158875318 3.5589193181178946 1.742184998756407 0 0 0
503 1 17.59971905634782 1.8772175636046855 1.8680348137420077 0 0 0
525 1 17.47220552409429 3.7620682937332557 3.606744804372333 0 0 0
505 1 17.515651802678523 0.22616470860156673 3.6673589559628836 0 0 0
404 1 15.679901742299208 0.17877214017332554 1.845266495725427 0 0 0
501 1 17.65901954459314 0.09799658628134388 0.14714107947135116 0 0 0
506 1 19.44612352886317 1.8923254314905285 3.647146793214209 0 0 0
524 1 19.44133994795479 3.6686673255749684 1.902192386885084 0 0 0
603 1 21.249148609936007 1.705451397709633 1.9173473502037106 0 0 0
625 1 21.336957209246258 3.660540397343382 3.5900285845698807 0 0 0
621 1 21.25321884115384 3.6465118047413383 0.0915431235628689 0 0 0
605 1 21.324000247849405 0.015355163937926974 3.684863224057857 0 0 0
601 1 21.254020940363958 0.04210961457538912 0.02306703961650224 0 0 0
502 1 19.456313115158384 1.8663474310906263 0.20029092752530914 0 0 0
606 1 23.18148758720787 1.776107797511952 3.6156231991921435 0 0 0
624 1 23.138735115559165 3.601993847339155 1.7940740714810566 0 0 0
703 1 24.85487108086695 1.645607422504289 1.817377453260462 0 0 0
724 1 26.804379968610014 3.5607149607235415 1.8937207861651235 0 0 0
725 1 24.933529127022695 3.502488479691619 3.7107562270864367 0 0 0
706 1 26.709729604379433 1.7628734612335208 3.8289839906404515 0 0 0
721 1 24.935715503031222 3.591984262675421 0.0228422124948285 0 0 0
702 1 26.946803092531447 1.9172859492340233 0.07157629408797657 0 0 0
701 1 24.864675141665618 0.08853938220340993 0.001440356502802986 0 0 0
803 1 28.62449601082989 1.7532899198908714 1.937478292703226 0 0 0
806 1 30.44418747027935 1.7764308807554487 3.8885180493155698 0 0 0
824 1 30.479660567159264 3.52308809241217 1.8821017103893096 0 0 0
825 1 28.559221216898447 3.6539119071785273 3.6986107581460548 0 0 0
821 1 28.610823723371578 3.6674763278103493 0.009070114316087854 0 0 0
804 1 30.521564311208945 0.03696562179886399 1.7573102856059692 0 0 0
805 1 28.68661314458339 0.07538484178605874 3.718605145481071 0 0 0
903 1 32.33196573519906 1.7707102876163177 1.858251919226058 0 0 0
906 1 34.07658031958981 1.6514661995706288 3.7448163092936957 0 0 0
924 1 34.24643248434613 3.3486285316868174 1.9319300706736455 0 0 0
925 1 32.19224412987284 3.512459350121832 3.7159478770830847 0 0 0
905 1 32.25699751605775 0.034615944157686956 3.7951024058156473 0 0 0
902 1 34.12128717232483 1.7676070122234613 0.18908361646230235 0 0 0
1003 1 36.140361169597604 1.6211442166347612 2.0046162813049166 0 0 0
1006 1 37.98185441996207 1.6309789108019028 3.6047580501528693 0 0 0
1024 1 37.99089777843887 3.4940598319794236 1.79542113209513 0 0 0
1025 1 36.01763497567133 3.3871376566057547 3.774029683498746 0 0 0
1002 1 37.98977781800761 1.8225970770146658 0.002956103148481989 0 0 0
1021 1 36.12902899358862 3.4364581841261788 0.06724445662937391 0 0 0
1103 1 39.710975111000614 1.7172229499954106 1.6651682922786284 0 0 0
1106 1 41.64289028709901 1.5072684589463248 3.4051130094081072 0 0 0
1124 1 41.64181415656954 3.5232531170664094 1.8247052870433167 0 0 0
1125 1 39.96976534019437 3.3347302667718166 3.721698510712817 0 0 0
1102 1 41.762166802373585 1.7645993076798223 0.06457375757468253 0 0 0
1121 1 39.84664320542102 3.6091151476746446 0.004321424252442649 0 0 0
1203 1 43.5949642386374 1.69981425310348 1.8109717115555717 0 0 0
1206 1 45.43966934767659 1.7505546969356056 3.617711906508477 0 0 0
1224 1 45.42319741937542 3.5530459774679737 1.8023505632972951 0 0 0
1225 1 43.5345592758133 3.5180800242708994 3.503161691074942 0 0 0
1325 1 47.330718531799846 3.3907388160661327 3.6720494929886485 0 0 0
1303 1 47.183823046935274 1.5995356989294756 1.792578161309236 0 0 0
1306 1 49.15426335699011 1.6628585245873788 3.6877089625444293 0 0 0
1324 1 49.01493528068166 3.4210246003224776 1.8249569171387465 0 0 0
1403 1 51.028752083605305 1.663416327549889 1.768887337026312 0 0 0
1425 1 51.05377235383302 3.481056359027288 3.490658431142266 0 0 0
1304 1 49.00633419760529 0.03775732874392969 1.7475894092205724 0 0 0
1405 1 51.0573403273112 0.07580746479662111 3.530156395679852 0 0 0
1406 1 52.93180780227109 1.6818743702286563 3.3975944063428694 0 0 0
1424 1 52.941868245740785 3.4328717794164314 1.632429290800994 0 0 0
1503 1 54.69879519601092 1.7047933763902143 1.661896513142415 0 0 0
1525 1 54.76283421888819 3.569448424842802 3.5544248007599637 0 0 0
1506 1 56.471616471947705 1.667171279962278 3.559163062857508 0 0 0
1524 1 56.518175548790595 3.559076167467392 1.6890017295388047 0 0 0
1603 1 58.48740127514179 2.0339447395623376 1.7799695180809079 0 0 0
1625 1 58.34299043891867 3.5235720951725553 3.686138272307685 0 0 0
1504 1 56.609618436807615 0.11013233687628624 1.70795350820092 0 0 0
1606 1 60.379381440664986 1.7835824260281792 3.3650005046111886 0 0 0
1624 1 60.365395268071374 3.6396010557616787 1.733221025532008 0 0 0
1703 1 62.256245231271606 1.7631799131321426 1.6239760644775088 0 0 0
1725 1 62.28107440640819 3.52745201514655 3.607152192428514 0 0 0
1705 1 62.150858793294034 0.07251484276798661 3.413905847480271 0 0 0
1706 1 64.09657069856699 1.8497901327731616 3.5016845531672383 0 0 0
1724 1 64.1006252320347 3.6021573473214636 1.6974014910428548 0 0 0
1803 1 65.9806299246059 1.695542824917553 1.7877120963351123 0 0 0
1825 1 65.98535045001829 3.4447506073599405 3.487355130613676 0 0 0
1806 1 67.69104301307188 1.7789483423952865 3.514099979556529 0 0 0
1824 1 67.92591929678372 3.551731891608818 1.7503066578802158 0 0 0
1903 1 69.65985515074448 1.6610310876530163 1.7705293324498124 0 0 0
1906 1 71.49585728443132 1.810710387017582 3.675364418135857 0 0 0
1924 1 71.43843088914726 3.546489642616804 1.7993721823149516 0 0 0
1925 1 69.62658910424905 3.336470061183733 3.6935519854262426 0 0 0
1905 1 69.55953501955044 0.06259142845107853 3.604440813690704 0 0 0
23 1 -0.9982975897945632 5.341203410177301 1.8304634321431688 0 0 0
26 1 0.9150808513106291 5.571107703910189 3.6884845151862304 0 0 0
44 1 0.8680828458437402 7.225565880239958 1.9384445065585227 0 0 0
45 1 -0.9468439794458318 7.354259841459901 3.640239792178276 0 0 0
41 1 -1.0904836712987087 7.375842098236803 0.06978880191927332 0 0 0
145 1 2.6636114757592178 7.420387805303724 3.7585596420754572 0 0 0
42 1 0.7997822423531477 8.942285441208538 0.08068838530041414 0 0 0
123 1 2.8298403505204335 5.613572030563413 1.8598066201709327 0 0 0
126 1 4.514581800510018 5.489111894073202 3.715441422417542 0 0 0
144 1 4.441732325046804 7.388847620865497 1.8604150969516413 0 0 0
223 1 6.343152130033334 5.627888033074998 1.7567537805037434 0 0 0
245 1 6.400296608939855 7.285256758209988 3.602665181961738 0 0 0
241 1 6.397397765933071 7.433649801855001 0.012588406060303746 0 0 0
122 1 4.52905856871547 5.623335505684171 0.05737534880205116 0 0 0
226 1 8.151181720303532 5.549945191442551 3.5254302355087423 0 0 0
244 1 8.173964596050427 7.433285449816895 1.8314151146133977 0 0 0
323 1 10.071649362607701 5.734480645509874 1.8679549972376477 0 0 0
345 1 10.126519086467802 7.399317529444145 3.61297557200097 0 0 0
326 1 12.150287445341899 5.619792222786948 3.51441322741853 0 0 0
344 1 12.071643069781214 7.428553178826547 1.8473551824037058 0 0 0
423 1 13.86223668442506 5.407564112495985 1.7822278408453922 0 0 0
445 1 13.849452111084947 7.4239795583181465 3.468165984468778 0 0 0
322 1 11.848570806996651 5.545520610043349 0.05671632984164197 0 0 0
426 1 15.714576333650944 5.474894307252096 3.665591590976985 0 0 0
444 1 15.628218801354308 7.333900356325561 1.6514718395680463 0 0 0
523 1 17.41540941802287 5.4709860922980145 1.6814748308520746 0 0 0
545 1 17.526233340817747 7.380525826449295 3.479285060964709 0 0 0
526 1 19.372283958604427 5.379700354126637 3.5272069498401826 0 0 0
544 1 19.41001493367058 7.317803598515279 1.8194316507711328 0 0 0
623 1 21.284415284076882 5.424311931038272 1.715244378648148 0 0 0
645 1 21.127327254457025 7.262098367813846 3.6836315909003257 0 0 0
641 1 21.130439367000367 7.163147805562563 0.06459004066586763 0 0 0
522 1 19.341305404118152 5.410715322664295 0.029066047298424595 0 0 0
626 1 23.099728699708756 5.454091745241913 3.6092022324231823 0 0 0
644 1 23.089734589522127 7.411091842661435 1.7537029071292596 0 0 0
723 1 25.010384844172385 5.416265860088498 1.8772994967446088 0 0 0
744 1 26.836107805283543 7.217359961910079 1.8503267233790575 0 0 0
745 1 24.961856949974653 7.2524249458299215 3.5580531049182516 0 0 0
741 1 24.894447908879304 7.300803732116855 0.06014635944429777 0 0 0
726 1 26.75262318692583 5.366143822234234 3.5717569652769123 0 0 0
746 1 26.890617376432154 9.017154419514851 3.74542141051384 0 0 0
742 1 26.873157205803587 8.961446293231345 0.14379994902087448 0 0 0
722 1 26.878842791096066 5.469169907571632 0.045545315430770825 0 0 0
642 1 23.030308434964702 9.023073202182145 0.0007410384914408041 0 0 0
823 1 28.667901792331936 5.405637450966187 1.8966053877206177 0 0 0
826 1 30.458037202530033 5.422257510467324 3.7687221507549724 0 0 0
844 1 30.462985546864363 7.188007704070494 1.8983154432567324 0 0 0
845 1 28.563974772390313 7.1793595238457115 3.747752194097167 0 0 0
846 1 30.49110094779459 8.993051265335911 3.669651444362627 0 0 0
843 1 28.65541143989154 8.875310187711538 1.9498465151294007 0 0 0
842 1 30.517625110482882 8.841474590374101 0.05374675620738802 0 0 0
822 1 30.668138781551303 5.4008606002864585 0.06248187402008839 0 0 0
841 1 28.63361124779973 7.076002799915231 0.07605536157785127 0 0 0
923 1 32.430003213602696 5.34263381402834 2.0671344574856914 0 0 0
926 1 34.2392692722347 5.3212849028567515 3.844503041376515 0 0 0
944 1 34.22308343780848 7.032118452913554 1.8849652177279401 0 0 0
945 1 32.22781849849521 7.10646313551376 3.7744907834844086 0 0 0
946 1 34.2255529652124 8.807867614953494 3.6950682518472715 0 0 0
943 1 32.45641703442932 8.851571252238791 1.8083106689450807 0 0 0
922 1 34.22290363936841 5.116752648818135 0.016717266590203478 0 0 0
941 1 32.43667983070069 6.996407271013038 0.17236616365933632 0 0 0
942 1 34.28647276467822 8.853607964888862 0.0790967980782381 0 0 0
1023 1 35.94553754075471 5.159516579069647 1.9048663624280584 0 0 0
1026 1 38.04183568264312 5.334629003819236 3.785486371123379 0 0 0
1044 1 37.93121614393563 7.010541919822098 1.7436265395347803 0 0 0
1045 1 36.24746081161937 6.956161721090401 3.7890157372626607 0 0 0
1043 1 36.09400629513371 8.781916873752152 2.0775819810479517 0 0 0
1022 1 37.86019739986862 5.248354714995034 0.019323068969035337 0 0 0
1041 1 36.05743275807415 7.146731064490639 0.030946259718283162 0 0 0
1046 1 38.015294752461415 8.875813204485043 3.6771054683309927 0 0 0
1042 1 37.88535957263623 8.914495296840025 0.023753200562397544 0 0 0
1123 1 39.79071065610055 5.27824364709587 1.8205286783723993 0 0 0
1126 1 41.595817271213036 5.2639142460051165 3.564046687975532 0 0 0
1144 1 41.7815430449915 7.10621297830182 1.9710080548828879 0 0 0
1145 1 39.70748253904146 7.084280009256691 3.60361309211995 0 0 0
1141 1 39.851515545363505 7.0519520589826445 0.14688235112836276 0 0 0
1122 1 41.72865763504878 5.392941424314375 0.09953778928372996 0 0 0
1146 1 41.67092930775904 8.920680680802931 3.5476696995386487 0 0 0
1143 1 39.82144156861314 8.901526161553493 1.588096342339159 0 0 0
1245 1 43.6119820742554 7.188806840232104 3.713844823490915 0 0 0
1241 1 43.65965109585492 7.194895619164754 0.023989292651156416 0 0 0
1223 1 43.626450430673955 5.391803487732885 1.871156801456901 0 0 0
1226 1 45.43669162978957 5.3112115710358525 3.656245100259708 0 0 0
1244 1 45.37814482989633 7.028756975153351 1.7745899315354516 0 0 0
1345 1 47.19976724516754 6.991814653319587 3.5734307332390576 0 0 0
1243 1 43.47174111667628 8.91910943894839 1.7804845200032486 0 0 0
1341 1 47.34471706705811 7.030127495586132 0.002222053147836153 0 0 0
1343 1 47.30877645767159 8.786812905326485 2.0228927992016352 0 0 0
1222 1 45.37044768056077 5.45506346060638 0.00029888326748905023 0 0 0
1242 1 45.568229785784574 8.889308555787226 0.003521808569557941 0 0 0
1323 1 47.36528676566923 5.277412284191945 1.846465105746577 0 0 0
1326 1 49.27334525801389 5.067352893016836 3.643276721593321 0 0 0
1344 1 49.17229616236317 7.0484547856139725 1.938779559362623 0 0 0
1423 1 51.08772290813404 5.196566212630314 1.5747845733118508 0 0 0
1445 1 51.12014231055878 7.0936281683557825 3.6383431623053264 0 0 0
1346 1 49.20814611572579 9.023918060714964 3.6659689940888667 0 0 0
1441 1 51.01328231736483 7.310678012651055 0.13486670644779114 0 0 0
1342 1 49.06849332276625 8.91753943907078 0.30476753203430496 0 0 0
1426 1 52.82496615088175 5.279978078852342 3.6461108399326063 0 0 0
1444 1 52.90041487003779 7.074904092863129 1.7909403205840493 0 0 0
1523 1 54.76884957947116 5.375555794443426 1.6641446840519942 0 0 0
1545 1 54.72044746373228 7.127969514320167 3.699156806437765 0 0 0
1446 1 52.87541911784544 8.868097669913432 3.60443963258008 0 0 0
1422 1 52.79476070601432 5.390509027046466 0.006798901085147795 0 0 0
1543 1 54.732486668932275 8.801903854015253 1.7794689294242967 0 0 0
1526 1 56.5662420818351 5.248537260350659 3.5262402338362318 0 0 0
1544 1 56.579665260195064 7.173133389698361 1.8484274180337532 0 0 0
1623 1 58.424386055828165 5.24576406698285 1.7187902146916023 0 0 0
1645 1 58.27793890614991 7.271352804932976 3.640568541381435 0 0 0
1641 1 58.36924279455877 7.095944637367861 0.025874399166054458 0 0 0
1542 1 56.550914797696066 8.953058543911126 0.001623932486111812 0 0 0
1626 1 60.21796855319505 5.377396520607978 3.5884979319128116 0 0 0
1644 1 60.186338547474755 7.1693761390768485 1.8877918087764245 0 0 0
1723 1 62.089220705504985 5.427744165664499 1.876342786328506 0 0 0
1745 1 62.05898501722984 7.250881055341141 3.574286763283018 0 0 0
1743 1 62.18736081644658 8.951899229474217 1.9050524309388552 0 0 0
1646 1 60.23683583680192 8.991214487203925 3.667235080770011 0 0 0
1642 1 60.16194822740209 8.989600504657222 0.20744135491597968 0 0 0
1622 1 60.420151841407424 5.438239960263509 0.052275299505122906 0 0 0
1726 1 64.16622529901117 5.287224474705172 3.447725669230907 0 0 0
1744 1 64.06495140837436 7.046002317871201 1.775613069105029 0 0 0
1823 1 66.22262226304112 5.3370552371701985 1.6881822696775783 0 0 0
1845 1 66.0220821183536 6.962901504163079 3.53200432801759 0 0 0
1746 1 64.08615596639156 8.927250124466612 3.6263633566202684 0 0 0
1843 1 65.8186946847676 8.84018087929824 1.8657910823490265 0 0 0
1844 1 67.8849081044844 7.230062685020492 1.7799915782528957 0 0 0
1826 1 67.90401841469814 5.266387717905834 3.6205981261144355 0 0 0
1923 1 69.63818811353619 5.3386706206169245 1.686665610330972 0 0 0
1926 1 71.30041757935913 5.309557892568699 3.5119933635622265 0 0 0
1944 1 71.40472778773218 7.167054885477642 1.6841416432530993 0 0 0
1945 1 69.63087181031362 7.1943842816318275 3.665357344859674 0 0 0
1946 1 71.4193999388508 9.017140851446324 3.574042006835497 0 0 0
1846 1 67.72753599154721 8.963927345034616 3.507628155188708 0 0 0
1943 1 69.67402740752755 8.977919801130275 1.8725929879193823 0 0 0
1842 1 67.83601041240776 8.920286206200519 0.03403573811760273 0 0 0
43 1 -1.0170818369606522 9.134127353842915 1.8473924345856916 0 0 0
46 1 0.7516795782021062 9.24176340065497 3.6820866379509134 0 0 0
63 1 -1.0739355996696365 12.689759745622515 1.82941462097132 0 0 0
64 1 0.7756932708096168 10.995100852820682 1.7868604073374672 0 0 0
65 1 -1.0125053206938146 10.966889389279341 3.5071663106745845 0 0 0
66 1 0.8439278359149314 12.701865399079198 3.6987860899980145 0 0 0
163 1 2.6393423307946207 12.642281826379795 1.8902143171630092 0 0 0
165 1 2.691545925805282 10.854519433067255 3.517676662861481 0 0 0
62 1 0.9265371385922536 12.908686511095295 0.13986634936758968 0 0 0
61 1 -0.9569033460949877 10.961892451992318 0.023780411150277375 0 0 0
161 1 2.5899545008557885 10.957445724714825 0.05582233161871804 0 0 0
143 1 2.665846070673063 9.15698174291559 1.866822474384144 0 0 0
142 1 4.539874516360539 9.279935301537467 0.033174637409348305 0 0 0
243 1 6.351307851498012 9.242749537922762 1.8840617831925675 0 0 0
146 1 4.635927977947401 9.145772209512865 3.69401440270378 0 0 0
164 1 4.447932919863216 10.92480836262343 1.7796499651289968 0 0 0
166 1 4.509184908283909 12.726869139614564 3.6024816138589855 0 0 0
263 1 6.4076512657386635 12.825746221519625 1.8936079443057894 0 0 0
265 1 6.457696115418635 11.055121207037637 3.637804714029969 0 0 0
261 1 6.417168000046342 11.103760020685689 0.02469510146457855 0 0 0
242 1 8.283411083212737 9.221583196699767 0.15595327236307685 0 0 0
246 1 8.365506733986871 9.188800222159458 3.6777200332200835 0 0 0
264 1 8.154983454083858 11.122126738669724 1.9245486464198387 0 0 0
266 1 8.267872717486231 12.75888966751163 3.8150468738209264 0 0 0
343 1 10.14950714322567 9.21561159815081 1.7410366046887464 0 0 0
363 1 10.17908345591176 12.933697901927598 1.9687248417778118 0 0 0
365 1 9.98808755392106 10.979727885714603 3.6107995540842115 0 0 0
361 1 10.21518648186574 11.112070926649372 0.26819876755842414 0 0 0
262 1 8.423071003847344 12.848496757184419 0.0653007239389274 0 0 0
346 1 11.882002542018114 9.21386351936842 3.6330563275301127 0 0 0
443 1 13.786198486231775 9.323976892611123 1.8935898248838068 0 0 0
364 1 12.024927635880628 11.01754143599176 1.8930721227744187 0 0 0
366 1 11.987100778469243 12.87777374446452 3.612436153519646 0 0 0
463 1 13.762329191609684 12.858823288636536 1.8759891141810345 0 0 0
465 1 13.736892413654644 11.079252522182472 3.7054079325329057 0 0 0
461 1 13.81411940840751 11.069820406091956 0.005507221180608743 0 0 0
362 1 11.921055603459255 12.75674149538826 0.054084598448350965 0 0 0
446 1 15.67628553598862 9.16010275753906 3.5256972382567913 0 0 0
543 1 17.561487966479877 9.229166450350217 1.7656430948699542 0 0 0
464 1 15.652468523930075 11.105763327087734 1.8098785629605547 0 0 0
466 1 15.691342381744041 12.898038319338228 3.6915395048920865 0 0 0
563 1 17.566194998539398 12.950645461030083 1.925739591067061 0 0 0
565 1 17.518252496857215 10.95755447621155 3.550384051657779 0 0 0
462 1 15.64603392992166 13.023272481876507 0.08282957914966954 0 0 0
561 1 17.567372511359025 10.934938948185765 0.07607936598959703 0 0 0
442 1 15.650451182148856 9.203297265431205 0.07410552849974952 0 0 0
643 1 21.223325947544705 9.163236503977247 1.8376722513632784 0 0 0
546 1 19.402858072888563 9.135940506032377 3.603608100044675 0 0 0
564 1 19.41706010936776 10.972619611649925 1.8287186514769307 0 0 0
566 1 19.34048527467855 12.708674571113937 3.5526472960100297 0 0 0
663 1 21.370131472980233 12.533185597127146 1.7763483574152528 0 0 0
665 1 21.29937692223439 10.963735083110334 3.56706781281711 0 0 0
562 1 19.2605939672225 12.814532736857187 0.06184731049119828 0 0 0
743 1 25.141528464048637 9.045283677860493 1.9356267351837404 0 0 0
646 1 23.078763116903406 9.224307863034465 3.6821589929639105 0 0 0
664 1 23.16286364518789 10.741276445334735 1.7202494886631587 0 0 0
666 1 23.2332159403274 12.597512437379986 3.685121231403701 0 0 0
763 1 24.974510807711866 12.501064914527902 1.8218342520549922 0 0 0
764 1 26.876636722517922 10.936703669997273 1.7922739557894911 0 0 0
765 1 25.122804807002538 10.839086049777553 3.5575473650022778 0 0 0
766 1 26.819126383800135 12.739091799550527 3.5545481178330944 0 0 0
761 1 25.039664191858005 10.85507552756882 0.12208304450450276 0 0 0
762 1 26.926909117200307 12.580271813308615 0.059656248205741655 0 0 0
863 1 28.7249815850336 12.720001860528262 1.827493037767153 0 0 0
864 1 30.49604764475079 10.7890745548336 1.7872638197334023 0 0 0
865 1 28.73196208605368 10.859003654330536 3.623536763033453 0 0 0
866 1 30.619948019856864 12.624423426181943 3.5086995250133306 0 0 0
862 1 30.525609820955783 12.675842391095836 0.09043254960215705 0 0 0
861 1 28.75025743653134 10.647949440826208 0.04298868186014215 0 0 0
963 1 32.395870488515286 12.53657646046244 1.8056094181834097 0 0 0
964 1 34.12071653801253 10.605539571315367 1.9297495318860391 0 0 0
965 1 32.30188556825502 10.858912937478014 3.778028049936427 0 0 0
966 1 34.229148026659026 12.50309242054694 3.5262862724376527 0 0 0
962 1 34.097598121200534 12.465978452427317 0.04736587621943425 0 0 0
1063 1 36.099808748135786 12.493013336297327 1.7639387118764664 0 0 0
1064 1 37.945074253439884 10.696016410549888 1.8100232636636537 0 0 0
1065 1 36.086234610991404 10.812604157323449 3.590249565932641 0 0 0
1066 1 37.94272945632435 12.597059640084733 3.713344451108376 0 0 0
1163 1 39.69759512824777 12.533151089800104 1.602463109283457 0 0 0
1164 1 41.59825413593064 10.766305328868617 1.9088513284557933 0 0 0
1165 1 39.91651324682832 10.803909821159486 3.5714562111762893 0 0 0
1166 1 41.66927758053584 12.482741753255562 3.570234535961358 0 0 0
1162 1 41.77979145026453 12.61823743917771 0.046160729744477616 0 0 0
1246 1 45.35993347224788 9.099646506469568 3.6830057868756265 0 0 0
1263 1 43.58235226175992 12.420014670492925 1.7952764730674877 0 0 0
1264 1 45.310908674651955 10.631888782698319 1.7075592501258732 0 0 0
1265 1 43.495642110164106 10.680150054912648 3.7127676333922457 0 0 0
1266 1 45.385122089559864 12.564798131815197 3.6232527489679254 0 0 0
1363 1 47.249217521404944 12.568891287188265 1.993386334489357 0 0 0
1365 1 47.28609274748745 10.775566100188799 3.6270764100674766 0 0 0
1361 1 47.338792555452116 10.708798040100548 0.07029026870678043 0 0 0
1261 1 43.65273971086668 10.746182221413532 0.024238084167172522 0 0 0
1443 1 51.06857188856092 9.079663443683927 1.9377096100982707 0 0 0
1364 1 49.130296069835836 10.763752876182735 1.8793381008909522 0 0 0
1366 1 49.0798789111926 12.63628113490183 3.706061172261429 0 0 0
1463 1 50.672346607783595 12.628030640803575 1.9018092133068736 0 0 0
1465 1 50.97350486996284 10.804515411431938 3.8132343252465404 0 0 0
1362 1 49.031000412833116 12.623737220335865 0.0989629587915094 0 0 0
1464 1 52.71286653172396 10.88881773589238 1.8813070232095315 0 0 0
1466 1 52.80407634626299 12.582319030526103 3.6275495854852937 0 0 0
1563 1 54.599214862722334 12.503563751541805 1.7394198870367443 0 0 0
1565 1 54.68438147814342 10.817356878211674 3.561696161778063 0 0 0
1561 1 54.724016536769625 10.585468702120574 0.13890328131513582 0 0 0
1546 1 56.54007584347199 9.073480719825278 3.699000549420246 0 0 0
1643 1 58.23168246470018 9.108323526114777 1.8330764547671494 0 0 0
1564 1 56.490463309565236 10.868761942584403 1.7089376169480683 0 0 0
1566 1 56.40946061198902 12.57050084604378 3.5098592734147505 0 0 0
1663 1 58.466595210719575 12.4781705092975 1.7403649836247457 0 0 0
1665 1 58.37858455397545 10.815482951984043 3.738622736047064 0 0 0
1562 1 56.65646209898895 12.562373019864946 0.06316415746967896 0 0 0
1661 1 58.55045166924364 10.805069990933596 0.015797287438469917 0 0 0
1664 1 60.18644695411525 10.778943493962785 1.99876509491426 0 0 0
1666 1 60.23389518441914 12.67050211999261 3.5835060958299723 0 0 0
1763 1 62.172170896608264 12.484427906962539 1.707926583138804 0 0 0
1765 1 62.20059945708997 10.787385849194022 3.640064072216384 0 0 0
1761 1 62.17241044585552 10.691971966279185 0.07870454056519688 0 0 0
1742 1 64.0889117087666 9.073232780999588 0.04417685333750568 0 0 0
1764 1 64.00817507452898 10.784083128076459 1.8887728532995318 0 0 0
1766 1 63.95963848643991 12.516229193703468 3.5860567818351767 0 0 0
1863 1 65.92547383911018 12.588263378675833 1.8304995423255224 0 0 0
1865 1 65.97106833944183 10.769072312180109 3.4549114624401653 0 0 0
1861 1 65.993285800433 10.864273241937937 0.03743163357650174 0 0 0
1866 1 67.80542482483052 12.47022183959134 3.575482888234417 0 0 0
1864 1 67.81394276582058 10.716029623419587 1.6292593462837588 0 0 0
1963 1 69.76399834286114 12.489352086439238 1.7579072366205493 0 0 0
1964 1 71.4155084703438 10.765605937309903 1.7125004181469208 0 0 0
1965 1 69.7654789452086 10.653926416952476 3.6535840712748295 0 0 0
1966 1 71.69971430835535 12.57686403641356 3.53848188889369 0 0 0
105 1 2.7182189893793356 18.026293783687883 3.62395729378052 0 -1 0
83 1 -1.177666208278532 16.459884813647108 2.0451941963806104 0 0 0
84 1 0.6958815131381076 14.502410875505783 2.0397114767214815 0 0 0
85 1 -1.1605604940165097 14.404938278068578 3.727810949620931 0 0 0
86 1 0.7930501672244095 16.50223655872383 3.516266409063111 0 0 0
81 1 -1.0256897002503258 14.772853539427308 0.11792199934616854 0 0 0
82 1 0.7369767540917279 16.399957664738256 0.2041677542813714 0 0 0
185 1 2.637082132053514 14.646001788256504 3.6457235359790636 0 0 0
183 1 2.772459965135364 16.258634102740782 1.8216732005165306 0 0 0
184 1 4.51734478637001 14.528501027036977 1.7821387134953721 0 0 0
186 1 4.669353821365975 16.21087988232775 3.597370527987025 0 0 0
283 1 6.346718395252234 16.23415352093449 1.7783767372310426 0 0 0
285 1 6.479132441239443 14.617489970808762 3.694395434850107 0 0 0
284 1 8.250218201284635 14.555285380717587 1.9800102998702318 0 0 0
286 1 8.2963244705064 16.415924775458983 3.593305841857592 0 0 0
383 1 9.975173277067997 16.517318084314514 1.7575485509518807 0 0 0
385 1 10.167144479172084 14.639150470890415 3.7299576681154107 0 0 0
282 1 8.279029454275415 16.50288002196795 0.018899386691420376 0 0 0
384 1 11.951514575729057 14.660895474972774 1.7040865974327095 0 0 0
386 1 11.962665693283792 16.45492361707052 3.634628331720593 0 0 0
483 1 13.663023389417875 16.500597227256282 1.7618122751709437 0 0 0
485 1 13.65514407485155 14.696577439454382 3.655363807540107 0 0 0
484 1 15.621835584680015 14.68718462158955 1.9013808871976474 0 0 0
486 1 15.541673173798054 16.439105307585045 3.717327661304854 0 0 0
583 1 17.527594308444897 16.43815776850029 1.855036733918352 0 0 0
585 1 17.63011256232178 14.721500625699885 3.7069282055285653 0 0 0
581 1 17.51930022577749 14.715056605984184 0.06474301146911395 0 0 0
482 1 15.650813617978207 16.493893033421642 0.11642989196106411 0 0 0
504 1 19.450633198382473 18.019249997580562 1.8987785278518068 0 -1 0
584 1 19.464517528769846 14.59950800405739 1.8880688782575343 0 0 0
586 1 19.440109978573098 16.342188611555894 3.615373200799039 0 0 0
683 1 21.329801423432862 16.276665081004946 1.8329257011569307 0 0 0
685 1 21.26929940932553 14.391596239237535 3.601073823233673 0 0 0
582 1 19.451647350920517 16.351334757345157 0.06680580133503847 0 0 0
604 1 23.04814638091987 17.967636752384536 1.8658716004385518 0 -1 0
705 1 24.882457273565095 17.983496324316913 3.634966701159318 0 -1 0
704 1 26.78291674342478 18.017940447063893 1.9326522032803017 0 -1 0
684 1 23.12507475841504 14.345157572734553 1.8626089104350425 0 0 0
686 1 23.066294031982306 16.223945729996608 3.6138043663877846 0 0 0
783 1 24.9102212618884 16.158949219397826 1.8064884875470943 0 0 0
784 1 26.83186128687409 14.461694458433481 1.812707629312868 0 0 0
785 1 24.984324243716543 14.502447659327641 3.6420922079188434 0 0 0
786 1 26.791687201600105 16.204664233525875 3.6185307473180774 0 0 0
782 1 26.743480931225832 16.38785118331296 0.19792154849920415 0 0 0
781 1 25.045170287596168 14.462773697621978 0.11828938358327519 0 0 0
682 1 23.08943918706425 16.303528054172418 0.038350289282787636 0 0 0
883 1 28.560866866959586 16.254844549413104 1.888659465760763 0 0 0
884 1 30.609550910238855 14.620649192338975 1.8726015185533895 0 0 0
885 1 28.78278065550339 14.409764522220746 3.710460024389977 0 0 0
886 1 30.48740672375982 16.37826671686098 3.672618534246568 0 0 0
881 1 28.81175171838639 14.546815167075232 0.01558508229038546 0 0 0
882 1 30.55729773093312 16.330202641323993 0.019588602384256998 0 0 0
904 1 34.39152835575714 17.990519855556983 1.7619478103672 0 -1 0
983 1 32.43048076620372 16.307287321530726 1.886661459232384 0 0 0
984 1 34.26029957908622 14.449572558424993 1.724078441561932 0 0 0