LAMMPS Description

4 atoms
1 atom types

0.0 4.08 xlo xhi
0.0 4.08 ylo yhi
0.0 4.08 zlo zhi

Masses

1 196.97

Atoms # atomic

1 1 0.0 0.0 0.0
2 1 2.04 2.04 0.0
3 1 0.0 2.04 2.04
4 1 2.04 0.0 2.04
