LAMMPS Description

500 atoms
1 atom types

0.0 18.05 xlo xhi
0.0 18.05 ylo yhi
0.0 18.05 zlo zhi

Masses

1 63.55

Atoms # atomic

1 1 0.061998769285605 18.04873738430301 0.016427990174545565
2 1 1.8110973163539645 1.7394529343280203 0.004680591810754218
3 1 0.018584626192970417 1.8111704793711498 1.7430414163946157
4 1 1.8538568958246864 18.015354050731514 1.8034629775514064
5 1 0.0153326310892077 18.011123047112466 3.665301825423777
6 1 1.8329329027608527 1.7866850862348744 3.671301208624367
7 1 0.03550437986759009 1.7423368756091249 5.421136181278815
8 1 1.8606910083367967 0.02699338554177274 5.41640167998362
9 1 0.0004067405599915301 0.0071575727494005165 7.1529510007039105
10 1 1.7533196472727446 1.755197475634849 7.232111922569508
11 1 0.03963652218918175 1.761052259922479 9.053609241996293
12 1 1.8111569205264684 18.03141986311992 9.087390844406345
13 1 0.00340284120157275 18.048576722199364 10.763844416453104
14 1 1.7783245046031233 1.8557586815450384 10.793672318768568
15 1 0.06497269902370265 1.827121939633598 12.619276287119485
16 1 1.8024701979081459 18.042039199243536 12.707864423970209
17 1 0.017966624546627737 18.049177056353496 14.501466779836722
18 1 1.8168769389699007 1.8535651666467774 14.485262379824855
19 1 0.052117061785229915 1.7666880212481182 16.237222498572038
20 1 1.8648323814305194 18.024746511540652 16.24839179779143
21 1 0.014366930393624718 3.660098176994945 0.04760232820199558
22 1 1.8087764057152107 5.393343006052938 17.98496929456279
23 1 0.002720203402857566 5.399899026662436 1.871547915797594
24 1 1.7546183282724481 3.651431585141826 1.7876750282367613
25 1 0.05361568020058189 3.5697892680907883 3.622288299554843
26 1 1.7761215374087955 5.375763799485559 3.65677795994945
27 1 0.07056095515394697 5.405901083755741 5.434526904999927
28 1 1.805703452358357 3.543406627701899 5.418113594832885
29 1 0.07716596557845826 3.626576298224006 7.241608485160908
30 1 1.828194315000305 5.472848167371705 7.239854080909101
31 1 0.012556370851175114 5.407341365267503 8.958033761652272
32 1 1.8032229991899666 3.5429714661307825 9.006340796096845
33 1 0.0006208124699746247 3.609851019518195 10.758183248305967
34 1 1.80611452093917 5.422668718691277 10.76260048985166
35 1 0.04607513634310679 5.4659659689137285 12.629006193351128
36 1 1.7870934813326813 3.569099074934771 12.576709510761175
37 1 0.0006174672023302765 3.610079854622645 14.513751081713044
38 1 1.8293986162221716 5.4082777534243025 14.504421021001743
39 1 0.027818103510300146 5.445700895283113 16.194089023861387
40 1 1.8332211199187392 3.6310214104905407 16.304122716426143
41 1 0.0012110611150911263 7.213888180235236 17.979543336818413
42 1 1.8162834306671582 9.02855020663641 17.98132195330318
43 1 0.03358775836221764 8.981122961330032 1.8519118879032173
44 1 1.8126987548627111 7.160179954905503 1.781397268008137
45 1 0.0026598790688207763 7.228582861409287 3.5345172109534797
46 1 1.799753367321753 9.031948934829549 3.6767846059994573
47 1 0.05207686885917361 9.009149488793836 5.446632318413439
48 1 1.8096070781245976 7.1653676109660305 5.367739662901518
49 1 0.005323153880808894 7.229456586146948 7.286648868785317
50 1 1.762891346986602 8.97157461062095 7.206650817151828
51 1 0.033375590861739725 9.06044915163377 8.971545353474868
52 1 1.8203679969310151 7.2254013031310755 9.08639597464651
53 1 0.02087382083789956 7.257459570742393 10.895174891323515
54 1 1.820945299275182 9.001625604279125 10.896380006706645
55 1 0.023797748802489877 9.068201811965915 12.577432485870863
56 1 1.8111713121087798 7.206127370857574 12.57275556766779
57 1 0.06885419158330859 7.205887133046987 14.450908442490581
58 1 1.8388840940510858 9.049498501865827 14.381744485143615
59 1 0.01833643075029738 8.961767092421388 16.243922425929952
60 1 1.768219602645877 7.259118957058615 16.200270657931874
61 1 0.025346406838970277 10.81344321275619 17.973648486754637
62 1 1.8444782870949827 12.578396025423801 18.042018241983392
63 1 0.011753767177327281 12.70395933027667 1.8191018581959313
64 1 1.7733676104107308 10.888539651874517 1.8232109038639281
65 1 0.025454582825886897 10.895919445341827 3.5978358153917727
66 1 1.860801656678981 12.597330630279107 3.5972596526810348
67 1 0.03181145401824557 12.612907567342328 5.357333833302705
68 1 1.8389844447929797 10.832743219321662 5.479277989860963
69 1 0.04172329471326455 10.78631590866777 7.18551960785509
70 1 1.8390671545345254 12.577429115279022 7.249697834447898
71 1 0.03491892593727501 12.686948320762676 8.991292287394792
72 1 1.7442466444498865 10.809236283945316 9.046748779806947
73 1 0.014516496546168234 10.865621175866647 10.88845187284372
74 1 1.8184226710857248 12.64297777263274 10.892941177214503
75 1 0.04463679028664178 12.587280766188316 12.633889269997693
76 1 1.8106436340183307 10.895107070641489 12.646661451973365
77 1 0.005032028733093746 10.816363045627433 14.371422067389133
78 1 1.7507836251362192 12.611520211806978 14.407970801412938
79 1 0.0650798879517609 12.652531527371838 16.221875749020835
80 1 1.8290250756035644 10.816461224236242 16.306924416119468
81 1 0.06501342314291728 14.47011994219801 0.02485962048572735
82 1 1.817239225171641 16.18798662737733 18.01665613083736
83 1 0.042253508505250226 16.2677354756102 1.8599241774775652
84 1 1.7859341505559183 14.49127341036291 1.768117000642068
85 1 0.027294197608441612 14.38798355593186 3.6418194698167143
86 1 1.8011101072918971 16.252686890949864 3.549103669468733
87 1 0.03608316589423282 16.23910615597247 5.471518809744576
88 1 1.80465883873118 14.440288311338536 5.478345721843062
89 1 0.018897648495469342 14.443899965853507 7.284072959516047
90 1 1.7365137182063377 16.26876538398631 7.2136077131682335
91 1 0.03913765319927731 16.264971787615764 8.97569760429723
92 1 1.7970322769854414 14.439682444809943 8.958568783894613
93 1 0.0236382680532357 14.43827678630226 10.893736403137249
94 1 1.8054574608367742 16.24225970095916 10.896511347074531
95 1 0.03910319203227446 16.199748921487377 12.607997015569495
96 1 1.785883281299162 14.451429085993581 12.567517781353663
97 1 0.0008809533908093579 14.443923751298312 14.375265492166859
98 1 1.8028040867507742 16.269950278315125 14.499630190621648
99 1 0.07194503238243555 16.242038014884383 16.233888703688294
100 1 1.8096953319399423 14.445562950904257 16.179003592858898
101 1 3.6795152229964985 18.04654680814741 0.011372153540814616
102 1 5.37625375464076 1.8601863592632897 0.022522513542037284
103 1 3.642645505646009 1.7529491181687225 1.7801489926857423
104 1 5.422430104444163 18.04692622137025 1.8711860148273025
105 1 3.588116312141578 0.012979168007783086 3.669380166370255
106 1 5.456254379318252 1.7520767868571245 3.5960168562970245
107 1 3.6716047075467766 1.8398648264238318 5.415228652717544
108 1 5.406416356732086 0.05902254002809668 5.449475249262169
109 1 3.581722901763536 0.02962605818282281 7.281211086260784
110 1 5.415790863046995 1.8268177922931763 7.283043751661241
111 1 3.547053971079264 1.775194916703668 9.044554662661378
112 1 5.402040400319495 0.07201882788896755 9.017662271316393
113 1 3.559840391471881 0.013996953680689846 10.79345615180723
114 1 5.38733872829324 1.770755900238112 10.885910678468347
115 1 3.5860799043889626 1.7951378782512828 12.569365818644835
116 1 5.408491855743593 18.037348385097268 12.706083848417697
117 1 3.5976513917921675 0.06917829173921476 14.459685308257669
118 1 5.351301697326618 1.8030955974859433 14.447350702114
119 1 3.5776846301919116 1.823021005296718 16.181343911435835
120 1 5.43253393027451 0.06660185407021922 16.253940087214872
121 1 3.6085648685326617 3.6124734886727623 0.07405669016824211
122 1 5.4772328277332765 5.436487550486434 9.60812496540312e-05
123 1 3.603718048715722 5.430933221516949 1.8702697120054594
124 1 5.435657885679464 3.5895084475349623 1.7416666166306822
125 1 3.669628589334718 3.5657101554372366 3.6214860373000697
126 1 5.414487863889142 5.377439391371208 3.6679791842517697
127 1 3.6086370823167324 5.419851617164443 5.482576782902233
128 1 5.3515225258055015 3.584385380809633 5.4202883018675445
129 1 3.6600550883807528 3.582518853387824 7.1887556724993305
130 1 5.429717154703953 5.454780018542489 7.165226217079249
131 1 3.5582093659695597 5.4126441533780625 9.063845566827055
132 1 5.3950105461117275 3.6681201055950243 9.050057936527834
133 1 3.5617952844532725 3.591982474265958 10.785822304999703
134 1 5.396506789765137 5.421865065423877 10.900035905789696
135 1 3.612116508456713 5.416983782629343 12.566472159362242
136 1 5.4565063899694 3.6102194056911205 12.694068462737746
137 1 3.632267043323846 3.547966685928191 14.422634327062658
138 1 5.464320451095734 5.3979581688663485 14.39942730715304
139 1 3.5956982502841206 5.453136785149435 16.195034900113782
140 1 5.428053799913717 3.671926430843109 16.220816616521482
141 1 3.6395020828711413 7.272303729790212 0.029539735096332318
142 1 5.3807635938895295 8.970384061054112 0.024442068192915143
143 1 3.621278125238733 8.972499352320552 1.8428800232078593
144 1 5.421509413335226 7.27082700196877 1.7641708518284769
145 1 3.6240626654763064 7.213272228948766 3.678277698119841
146 1 5.37247711632091 9.043484712465956 3.5572805700465913
147 1 3.5760306717097436 9.050081211979345 5.362760609595792
148 1 5.457418513655794 7.204344277258709 5.471764300082229
149 1 3.581336832073786 7.271330511152404 7.192674126179715
150 1 5.403701615564585 9.02584971750039 7.2885649077349886
151 1 3.6357975371939757 9.086313940896407 8.997587974375682
152 1 5.404876982541151 7.285224150985538 9.053512423957828
153 1 3.591210247705812 7.160797036570726 10.798976971857536
154 1 5.380895810406859 9.059587040619396 10.868828688532695
155 1 3.6280113406083236 9.094681575396303 12.64902451505462
156 1 5.450855031928361 7.163023580877473 12.648055763744933
157 1 3.5747608489709197 7.171448739749469 14.47669452002427
158 1 5.395458389610966 9.038623937108119 14.503366529792054
159 1 3.6054636822022403 9.016767066289246 16.177268000954232
160 1 5.374906448458193 7.278525554961838 16.264886897224237
161 1 3.5827044770269927 10.884072534012448 0.024382928619112818
162 1 5.391252505482936 12.623032174641574 0.0585954031485644
163 1 3.654113319506995 12.578612755128873 1.8069820616413428
164 1 5.443083949551943 10.844063191600108 1.7452666671912374
165 1 3.6097721452163563 10.7724919114616 3.5746152790180554
166 1 5.416693540786176 12.634611847746273 3.5460053556075124
167 1 3.582748685969275 12.660151965468293 5.473781940868287
168 1 5.376539708355652 10.876907362874276 5.379145334043069
169 1 3.6332215017058545 10.884070111290457 7.258354880736849
170 1 5.398317853624559 12.633272149947324 7.284327478064037
171 1 3.6077699043640274 12.69043007340406 8.984055395713186
172 1 5.361674399433284 10.84477010254313 8.987728637643718
173 1 3.601505865959854 10.841147537512244 10.899665743146894
174 1 5.385577960000277 12.580909481160491 10.798668791127696
175 1 3.605687951152715 12.686868312081552 12.595887109244718
176 1 5.38931110222509 10.884967282189086 12.599952940657646
177 1 3.6604729087940817 10.80591653403765 14.407128822489469
178 1 5.380583249423346 12.6547965050037 14.498482904135626
179 1 3.538250942666251 12.622523957379583 16.24723750516882
180 1 5.4565039453270066 10.810920771048517 16.207232466501804
181 1 3.5480286394384017 14.441141643605743 18.04571613038617
182 1 5.431871213554693 16.260045293119685 17.983935238175167
183 1 3.573524364402088 16.222109548144374 1.8598652885440046
184 1 5.385522078966618 14.418214672754708 1.8661063669974949
185 1 3.562628825035422 14.396519776089322 3.5787573995144273
186 1 5.462782806888723 16.28989746984093 3.6284466825276613
187 1 3.5756763014438384 16.25213274676697 5.348126732767295
188 1 5.445724817938739 14.44704017133286 5.47009880359925
189 1 3.643387363765649 14.501506792984589 7.227170698852466
190 1 5.352744973691791 16.270165949457606 7.2179653306409275
191 1 3.6769681748668517 16.260098263326487 9.043504914349965
192 1 5.420904124596541 14.442422107986014 8.952084951727743
193 1 3.6034731156353437 14.434615800281453 10.901937160239212
194 1 5.4837193514109055 16.237094296656505 10.831695625931758
195 1 3.6079638917185597 16.2458621332625 12.708945046213692
196 1 5.438807656899764 14.45904342790395 12.694030419029986
197 1 3.61811532947238 14.4371838343048 14.372416321981015
198 1 5.438728827544252 16.297079587066765 14.481961376500795
199 1 3.6196379828294964 16.277795581525815 16.184073889262457
200 1 5.460517075226792 14.484654621553831 16.262344150498272
201 1 7.229438947651631 18.048677368547665 17.983854680279936
202 1 9.066600707333283 1.802081300784344 17.997151524843463
203 1 7.214725710298659 1.8210872336215598 1.7418368419440664
204 1 9.020275666831182 0.027178651477040097 1.7343696861422964
205 1 7.268498716429215 18.031620883194975 3.6634567048011886
206 1 9.028682419296997 1.751392111574223 3.6473872645551264
207 1 7.219391727147767 1.7376102749996005 5.4163347047723995
208 1 9.041625651254583 0.026904293480005344 5.359797940237778
209 1 7.164658607646566 0.0050560962005732814 7.1838506913693445
210 1 9.089775268174085 1.7993438280796108 7.191824895849784
211 1 7.2353046171744735 1.841954814193355 9.079815186175043
212 1 9.073222744580141 0.03163991165556169 9.044828324917304
213 1 7.199582912898619 0.02528211425543236 10.772446126235526
214 1 9.082483724242458 1.7753892789007553 10.855923652731107
215 1 7.194373624773621 1.7629910192614016 12.672576941207009
216 1 9.029722439409083 18.024125963369176 12.575031813361889
217 1 7.176019642587436 18.000083690254947 14.438568558722043
218 1 9.02365696436212 1.804378752600196 14.50843272831454
219 1 7.166608565121246 1.7881146413291218 16.19675196759852
220 1 9.026045485572162 0.05616435853863646 16.238722346601545
221 1 7.260406056161785 3.665845763623471 18.030174716124243
222 1 9.090019496240094 5.438468025282335 18.046206921938644
223 1 7.18020519863797 5.45005097640805 1.8508384609196538
224 1 9.013337124553356 3.672105926871617 1.7969422716876802
225 1 7.262273752075113 3.5600798852965188 3.5919923041856032
226 1 8.999413815890968 5.382713331539515 3.65908688748424
227 1 7.20822737298063 5.4118948885633245 5.346324224885277
228 1 9.020913628187468 3.604948982806373 5.350119040227181
229 1 7.219130702419922 3.6159557304616508 7.148364998805747
230 1 9.025767092508971 5.433904257760472 7.160967592805927
231 1 7.1706977737146005 5.408276247497355 9.06292590484676
232 1 9.063469461409088 3.553685908250377 9.040069356221338
233 1 7.192522367280293 3.591076508447205 10.881340684636703
234 1 9.020956881571607 5.358390759891857 10.870151817601101
235 1 7.223609348277795 5.418038173753695 12.562121825648603
236 1 9.017071929973255 3.6535535049470784 12.579400840307455
237 1 7.261788504599431 3.643792915081296 14.396544815571133
238 1 9.011186461116267 5.422713018710203 14.50802547462059
239 1 7.18526290469163 5.423285514482818 16.307843050932956
240 1 8.962234570947865 3.613931068405968 16.220808418668774
241 1 7.220574428972714 7.217906048105894 17.984847647841555
242 1 9.04760805686498 9.083730951240058 18.03979715874361
243 1 7.253574819685664 9.060603175492915 1.7576970003223573
244 1 9.091243995445033 7.218553964424488 1.7808823420608586
245 1 7.256356485509419 7.2404516725589545 3.6625800947679803
246 1 8.992821245277568 9.052892900141694 3.6697169840538475
247 1 7.257993121447314 9.074568177608247 5.438980930804751
248 1 8.982026116505143 7.1748908128128175 5.435838896695798
249 1 7.223097686045779 7.223115962813013 7.284707950336048
250 1 8.959262649005934 9.04198788224673 7.233639620156775
251 1 7.199145527552539 9.033505908794297 8.95960247524681
252 1 8.97420631276162 7.226188169048032 8.976053736282438
253 1 7.281601701683391 7.237748100073721 10.849660512545297
254 1 9.020130346998362 8.984643687396039 10.780237578008332
255 1 7.221524606798075 9.025665435276938 12.698446983068688
256 1 8.952397038341852 7.215327145791037 12.639563623586666
257 1 7.214569172471896 7.253741882257247 14.498054938805748
258 1 8.973460609784428 9.067300494173837 14.46020399437634
259 1 7.210089255462781 8.95768656277375 16.22569312569966
260 1 9.067633842092583 7.256733046364608 16.202539293932062
261 1 7.227037855909612 10.831551933258496 17.979525935148644
262 1 9.060347541991545 12.681077984995033 17.999223812719425
263 1 7.268204931125097 12.66280712037155 1.7735503496657925
264 1 9.028107523787119 10.83225748533628 1.8749964292534345
265 1 7.215696471872096 10.829987251265976 3.6736857860076704
266 1 9.021551138697845 12.705302535836756 3.600976577459748
267 1 7.2073000423119264 12.627655484504979 5.348161949795947
268 1 9.018484072157905 10.866210468956027 5.469617013293458
269 1 7.161553727918578 10.863610828593727 7.2163843259899245
270 1 9.081949820915046 12.651289265334228 7.1800101433312395
271 1 7.229035335963643 12.593976539749624 9.07610071927922
272 1 9.045871295163487 10.888649872356101 8.99436293623178
273 1 7.25023980512771 10.79185635301921 10.787447544083278
274 1 9.077499739835561 12.593085321743404 10.821284830253164
275 1 7.290328172144297 12.637818847490188 12.638479588255551
276 1 9.001665690990045 10.894689639174208 12.644281208647527
277 1 7.246590297494523 10.810957396068597 14.50332716195485
278 1 9.029370112002505 12.612036359676921 14.376641243354651
279 1 7.186144646106973 12.68554543610348 16.26745585941205
280 1 8.971093913863097 10.86856864995622 16.2360096787844
281 1 7.214594803615159 14.413542410871113 0.06624365951127865
282 1 8.978560265473066 16.268937175668665 0.04269887004044285
283 1 7.266832887642942 16.263275714903056 1.7598651420846612
284 1 9.032009430275668 14.443267677051221 1.8678438708900276
285 1 7.271721483958706 14.480068050136921 3.6420506227057565
286 1 9.033067865266155 16.184843537537066 3.620854894913221
287 1 7.257578162478306 16.202408047015542 5.449722433410049
288 1 8.983459777611994 14.470330320483292 5.459254822778169
289 1 7.271927543314358 14.420944799080134 7.184834489900895
290 1 9.061195636943147 16.206218527494084 7.260833171315932
291 1 7.151814060953191 16.23609041608049 9.00617050484199
292 1 9.031771596638157 14.483998232327345 8.98898256672182
293 1 7.212562739853447 14.376338589933209 10.847287422848291
294 1 9.041336585929919 16.181776616693675 10.814608631307253
295 1 7.25593516833807 16.285469892751202 12.596868055507022
296 1 8.997173885199706 14.502533585956536 12.63392339604619
297 1 7.216989279546972 14.397119082237733 14.369528785856351
298 1 9.055113632206426 16.25734424683059 14.377515675658858
299 1 7.254221997210366 16.292143034658764 16.215182088742605
300 1 9.023209236987947 14.434452514455415 16.17732892283754
301 1 10.845931032450329 0.003933276435486558 17.980545572201564
302 1 12.687035670887031 1.8289832111025177 0.04628919689678201
303 1 10.833231509549142 1.787391165949459 1.8680270043092553
304 1 12.642469400579381 0.07796215499959752 1.793851577466275
305 1 10.81017779943569 18.03807351747432 3.5556637683054473
306 1 12.66612298112605 1.8420569026911848 3.5725510763867527
307 1 10.786489596116567 1.8019462615803556 5.471993783014143
308 1 12.656865350647811 0.012742942218662874 5.351881090597559
309 1 10.88783298523753 18.018213650044398 7.228125611908466
310 1 12.604553316094954 1.7982479496009542 7.2766381392131265
311 1 10.855263977898788 1.7826149917592817 8.971607963902871
312 1 12.683547659313614 18.02414586193456 8.98440541544155
313 1 10.8625454105891 0.0373841342682364 10.874753327412794
314 1 12.648866801321015 1.8132073447941175 10.89875331323815
315 1 10.79700988924929 1.7514551508095657 12.659070738838844
316 1 12.609100463039589 0.009371930986432676 12.693803370526059
317 1 10.83026566462161 0.008891041845873847 14.368249190398107
318 1 12.62098809141169 1.8728037585635946 14.433277963717902
319 1 10.88759319776499 1.8292587201682633 16.234811786135477
320 1 12.617259503948123 0.059171632692782944 16.238969839013954
321 1 10.805398854498312 3.546889068703316 0.009215827808309394
322 1 12.600890853305298 5.479464595724803 0.013345624958524125
323 1 10.86513409968315 5.381357038445617 1.8512786261209284
324 1 12.657971851389341 3.5624769569703583 1.8436775772744922
325 1 10.882722164993197 3.598376199752826 3.6557018149909735
326 1 12.651142239226864 5.351590685418091 3.6238240361151517
327 1 10.8772881008129 5.438493130512225 5.4608433334537025
328 1 12.637412302996848 3.617459576091174 5.485521108178498
329 1 10.795463373237801 3.675220735284148 7.206833412990625
330 1 12.680561286995172 5.401218645271604 7.265514502989331
331 1 10.830568446410378 5.409412432389686 8.95555371422153
332 1 12.577385200942144 3.630801432367622 9.049713913143975
333 1 10.872829004708843 3.639395859707539 10.78053928456569
334 1 12.662395010808726 5.360520668682204 10.852474363566383
335 1 10.832442447463631 5.428105621298577 12.70065857139021
336 1 12.651721290372087 3.609208666745881 12.70175805772898
337 1 10.897600605205444 3.6325221677801935 14.447634526636227
338 1 12.613076878862705 5.392001130539969 14.496838832197474
339 1 10.842504737047543 5.35789901037694 16.271250220158564
340 1 12.659551552437808 3.6332194149761903 16.187723652225465
341 1 10.833618659188847 7.246532714528369 17.98646607325116
342 1 12.647708556628737 9.0283417631371 0.06753512421832807
343 1 10.823351524851752 8.99564014323118 1.874370817417618
344 1 12.687774453031805 7.249062894132078 1.7777681326496957
345 1 10.77253317769741 7.203348478689358 3.5762741355144683
346 1 12.650577375888652 9.027039735136011 3.541837106509039
347 1 10.780433711368481 9.064967863087507 5.442307649831864
348 1 12.580285458638189 7.21679692750068 5.3787420390391425
349 1 10.796486762905296 7.162235146876955 7.250129507808737
350 1 12.637639904351639 9.017746423766628 7.290085334491193
351 1 10.81240409044418 9.016003027513014 8.95914961575876
352 1 12.663032204912438 7.226247546298607 9.093299445250247
353 1 10.791199321241656 7.20012727418004 10.884368457495258
354 1 12.637387902297363 9.093921490032812 10.80945156749043
355 1 10.843977206551614 9.028919277914401 12.700109420624349
356 1 12.67366844689102 7.259559132792544 12.596682073263189
357 1 10.820020975942818 7.1873624517049866 14.502697629818911
358 1 12.649114500828702 9.032665159574776 14.504895917518484
359 1 10.821743150124997 8.998968560666524 16.182737931468434
360 1 12.595052772521374 7.262637178003182 16.284560898619837
361 1 10.836337104909466 10.776505578228926 0.04267732811086053
362 1 12.706554412352176 12.615082467369556 0.013829810142780553
363 1 10.77691718905541 12.606003579904717 1.810079985166935
364 1 12.681454610000499 10.87733959391477 1.7904770052609178
365 1 10.896743714429459 10.846955181476547 3.6016364225197095
366 1 12.619534225938576 12.67585436714368 3.562796131318994
367 1 10.864076734977388 12.695437411539224 5.4236058173501664
368 1 12.6890454831151 10.868113409940971 5.402159828787823
369 1 10.780508596735565 10.783344525551634 7.218546766498627
370 1 12.609247178220743 12.650817097583955 7.28019991008913
371 1 10.842476298015185 12.610604559118867 9.087716054365623
372 1 12.659466783347936 10.802302743653058 8.971231471603353
373 1 10.874863160502432 10.813448923679703 10.78210577130309
374 1 12.567532987624046 12.647599022359644 10.847140377766438
375 1 10.875212029813158 12.631872024063314 12.5816643060784
376 1 12.621918299087266 10.85645074606327 12.575915780950622
377 1 10.856671176940248 10.852880216887549 14.50448381704201
378 1 12.63756037893499 12.623325120477476 14.372676440805137
379 1 10.825531511242653 12.658256352450737 16.308194013275656
380 1 12.634673314499954 10.826753466458932 16.307402312482598
381 1 10.829874143806164 14.439313987319712 0.07019740289165202
382 1 12.629017111401481 16.25233132712923 17.983068037847765
383 1 10.835277318989027 16.228523825806025 1.8714034122135157
384 1 12.67340997356353 14.454220461328756 1.7549628848432572
385 1 10.775303716255687 14.464387312041868 3.5843122877192344
386 1 12.694111772887345 16.268296452073336 3.5792938414743123
387 1 10.89491149052055 16.25902824787523 5.4121080730787865
388 1 12.638084515488822 14.457699822733812 5.34850136506695
389 1 10.794594060822952 14.440330348099483 7.266376546785848
390 1 12.685500501256707 16.20677622983728 7.207394979931466
391 1 10.834693635838784 16.24054566018818 9.089326455731916
392 1 12.625399934187904 14.429137724673655 9.09401604744636
393 1 10.789711484678195 14.379796086570698 10.82938142587498
394 1 12.60869008952928 16.232091606028725 10.894293447272629
395 1 10.78050377471192 16.24546439987008 12.683051222339094
396 1 12.66660777730692 14.499706193551305 12.637534427490223
397 1 10.83206899670069 14.444112004827636 14.371130896340722
398 1 12.601370758927319 16.187183190827486 14.408333874557371
399 1 10.783648905496538 16.288963623186056 16.216990461711767
400 1 12.591839334255779 14.47242630726184 16.203946945456533
401 1 14.465544796124314 0.05079625201191263 0.03952930801372155
402 1 16.218584575876424 1.8075728535218765 0.05781987997609318
403 1 14.429804484141036 1.7638915086820801 1.860942001543787
404 1 16.27197636750415 18.016356300651594 1.8647674996034467
405 1 14.42430293544825 0.06524551352776456 3.6080095834164787
406 1 16.193894938166626 1.8001015829987492 3.559257475714855
407 1 14.510689934672307 1.7889741563540356 5.428007812628417
408 1 16.183268835252996 0.00787705320656168 5.375936322566094
409 1 14.401121705748825 17.999042663506163 7.237254855259036
410 1 16.257756322731638 1.8073544871583946 7.28691509555986
411 1 14.389422543575078 1.843142907540466 9.054567917392832
412 1 16.287903137233055 18.028406568813093 9.07764061333001
413 1 14.448530137572005 0.0066282469445282525 10.76663283453183
414 1 16.227303146781253 1.8571469571511734 10.785320079112797
415 1 14.38107615169923 1.8087963529219708 12.615885221007774
416 1 16.257864760370932 18.0457699993954 12.701212299000746
417 1 14.483722378206071 0.010941228021283165 14.389701676261561
418 1 16.250742712038857 1.749233470984883 14.405140913047177
419 1 14.395076344352162 1.8547944003930723 16.224042841700534
420 1 16.21762274627016 0.04807551870369035 16.28306055137187
421 1 14.3793784338808 3.570354419199989 18.03476860973832
422 1 16.282378964006615 5.425407449294366 0.06635084981275231
423 1 14.400689234901442 5.453969672010609 1.756636554238285
424 1 16.182268302624596 3.6406453316810463 1.8147610295566865
425 1 14.435292985909907 3.658897375571547 3.6570138716268645
426 1 16.264089386598645 5.365955321458534 3.654063822689201
427 1 14.460065651225028 5.425581284762541 5.352148311356841
428 1 16.26248548375895 3.565414423294774 5.368372215137768
429 1 14.42651446020414 3.6162715650618327 7.156003204504914
430 1 16.23888148748973 5.423766523900454 7.2884637271036885
431 1 14.493735121018918 5.408443111174732 9.066507434771738
432 1 16.226251847182393 3.6738009818802464 9.045002725785528
433 1 14.46097712067706 3.644921806193977 10.783372046727619
434 1 16.301386996289178 5.394510354294532 10.87667169745139
435 1 14.433814868357942 5.407867862591373 12.56160129365584
436 1 16.27139739306927 3.5508200797108938 12.655193504176122
437 1 14.40970907915449 3.6221883680450393 14.502396062378956
438 1 16.273530905240094 5.416419954751143 14.50219223938266
439 1 14.458131303538348 5.3528911443766525 16.272719458528
440 1 16.258461957010454 3.624865120441489 16.309007094810195
441 1 14.43566776461817 7.230416037660285 17.976854596066392
442 1 16.24573562838409 9.024428996280058 17.98393416852368
443 1 14.50247570281264 9.041310229409522 1.7835727225008284
444 1 16.244094517996636 7.219960169881688 1.875786975115367
445 1 14.40505584957599 7.18091243309539 3.563464528884781
446 1 16.279359892262587 9.081155325892798 3.582921802030642
447 1 14.47791264410725 9.065176835458159 5.447987170787272
448 1 16.21284662713693 7.267056005065017 5.457279052497003
449 1 14.480943389065995 7.172081586693949 7.1936094200853
450 1 16.220945411410824 9.07730633124756 7.256661127160532
451 1 14.471262309108646 9.0322173471003 9.082029856220007
452 1 16.296246630456334 7.2715993556058045 9.031634395426043
453 1 14.495716440696315 7.1888460754031005 10.830490792473093
454 1 16.22111363320747 9.054676242415502 10.780508750656741
455 1 14.426759489129257 9.071935628995458 12.585428551487134
456 1 16.24959478032756 7.203939978776197 12.5643947621967
457 1 14.419615840885598 7.21632408873389 14.37021891962928
458 1 16.26758090922187 9.012625478225415 14.381130854777945
459 1 14.4146802014772 9.034145013660618 16.306599898725736
460 1 16.287318592398044 7.264449113738412 16.226700868539186
461 1 14.480354522844024 10.878074263912447 0.024989177648302323
462 1 16.23976817951336 12.63259531811609 17.980290584870644
463 1 14.374926798982479 12.664072281039958 1.8100160559946117
464 1 16.21730513021151 10.764155244933148 1.8064887917527352
465 1 14.460388635915969 10.825440642776268 3.5467152413679335
466 1 16.22885914376027 12.615544969844306 3.5479688341790006
467 1 14.434263047748201 12.642448474170147 5.347401554959356
468 1 16.23903079501418 10.793734052324055 5.355643357721427
469 1 14.400309631978383 10.866643119066008 7.262126289340769
470 1 16.278883359934493 12.682093973815217 7.1780380651419655
471 1 14.466099972548173 12.621725480984571 9.084256186849801
472 1 16.181500636216075 10.814773147048362 9.02685095112428
473 1 14.434669360761976 10.832904691987848 10.899245904936922
474 1 16.245721577787904 12.637144982218512 10.762547948988086
475 1 14.492198433749541 12.594563686056917 12.624954775873281
476 1 16.272576526491875 10.84464300587386 12.698491049079934
477 1 14.484854844232819 10.783397254898256 14.413285738896255
478 1 16.295019372461 12.65657124490674 14.479728681781191
479 1 14.470931142199966 12.683626964783693 16.20865723154752
480 1 16.18207289153073 10.859639769784819 16.214607409271714
481 1 14.410570485322841 14.491323270643843 18.02155803566916
482 1 16.216098140003147 16.271202492029797 17.994997523457904
483 1 14.437818600567661 16.315578235639837 1.8180955781923838
484 1 16.24356203785378 14.44003197474977 1.7355372435440175
485 1 14.440255586864293 14.435706637233642 3.547366593047535