LAMMPS Description

96000 atoms
1 atom types

0.0 211.2 xlo xhi
0.0 70.4 ylo yhi
0.0 70.4 zlo zhi

Masses

1 58.69

Atoms # atomic

1 1 0.0 0.0 0.0
2 1 1.76 1.76 0.0
3 1 0.0 1.76 1.76
4 1 1.76 0.0 1.76
5 1 0.0 0.0 3.52
6 1 1.76 1.76 3.52
7 1 0.0 1.76 5.28
8 1 1.76 0.0 5.28
9 1 0.0 0.0 7.04
10 1 1.76 1.76 7.04
11 1 0.0 1.76 8.8
12 1 1.76 0.0 8.8
13 1 0.0 0.0 10.56
14 1 1.76 1.76 10.56
15 1 0.0 1.76 12.32
16 1 1.76 0.0 12.32
17 1 0.0 0.0 14.08
18 1 1.76 1.76 14.08
19 1 0.0 1.76 15.84
20 1 1.76 0.0 15.84
21 1 0.0 0.0 17.6
22 1 1.76 1.76 17.6
23 1 0.0 1.76 19.36
24 1 1.76 0.0 19.36
25 1 0.0 0.0 21.12
26 1 1.76 1.76 21.12
27 1 0.0 1.76 22.88
28 1 1.76 0.0 22.88
29 1 0.0 0.0 24.64
30 1 1.76 1.76 24.64
31 1 0.0 1.76 26.4
32 1 1.76 0.0 26.4
33 1 0.0 0.0 28.16
34 1 1.76 1.76 28.16
35 1 0.0 1.76 29.92
36 1 1.76 0.0 29.92
37 1 0.0 0.0 31.68
38 1 1.76 1.76 31.68
39 1 0.0 1.76 33.44
40 1 1.76 0.0 33.44
41 1 0.0 0.0 35.2
42 1 1.76 1.76 35.2
43 1 0.0 1.76 36.96
44 1 1.76 0.0 36.96
45 1 0.0 0.0 38.72
46 1 1.76 1.76 38.72
47 1 0.0 1.76 40.48
48 1 1.76 0.0 40.48
49 1 0.0 0.0 42.24
50 1 1.76 1.76 42.24
51 1 0.0 1.76 44.0
52 1 1.76 0.0 44.0
53 1 0.0 0.0 45.76
54 1 1.76 1.76 45.76
55 1 0.0 1.76 47.52
56 1 1.76 0.0 47.52
57 1 0.0 0.0 49.28
58 1 1.76 1.76 49.28
59 1 0.0 1.76 51.04
60 1 1.76 0.0 51.04
61 1 0.0 0.0 52.8
62 1 1.76 1.76 52.8
63 1 0.0 1.76 54.56
64 1 1.76 0.0 54.56
65 1 0.0 0.0 56.32
66 1 1.76 1.76 56.32
67 1 0.0 1.76 58.08
68 1 1.76 0.0 58.08
69 1 0.0 0.0 59.84
70 1 1.76 1.76 59.84
71 1 0.0 1.76 61.6
72 1 1.76 0.0 61.6
73 1 0.0 0.0 63.36
74 1 1.76 1.76 63.36
75 1 0.0 1.76 65.12
76 1 1.76 0.0 65.12
77 1 0.0 0.0 66.88
78 1 1.76 1.76 66.88
79 1 0.0 1.76 68.64
80 1 1.76 0.0 68.64
81 1 0.0 3.52 0.0
82 1 1.76 5.28 0.0
83 1 0.0 5.28 1.76
84 1 1.76 3.52 1.76
85 1 0.0 3.52 3.52
86 1 1.76 5.28 3.52
87 1 0.0 5.28 5.28
88 1 1.76 3.52 5.28
89 1 0.0 3.52 7.04
90 1 1.76 5.28 7.04
91 1 0.0 5.28 8.8
92 1 1.76 3.52 8.8
93 1 0.0 3.52 10.56
94 1 1.76 5.28 10.56
95 1 0.0 5.28 12.32
96 1 1.76 3.52 12.32
97 1 0.0 3.52 14.08
98 1 1.76 5.28 14.08
99 1 0.0 5.28 15.84
100 1 1.76 3.52 15.84
101 1 0.0 3.52 17.6
102 1 1.76 5.28 17.6
103 1 0.0 5.28 19.36
104 1 1.76 3.52 19.36
105 1 0.0 3.52 21.12
106 1 1.76 5.28 21.12
107 1 0.0 5.28 22.88
108 1 1.76 3.52 22.88
109 1 0.0 3.52 24.64
110 1 1.76 5.28 24.64
111 1 0.0 5.28 26.4
112 1 1.76 3.52 26.4
113 1 0.0 3.52 28.16
114 1 1.76 5.28 28.16
115 1 0.0 5.28 29.92
116 1 1.76 3.52 29.92
117 1 0.0 3.52 31.68
118 1 1.76 5.28 31.68
119 1 0.0 5.28 33.44
120 1 1.76 3.52 33.44
121 1 0.0 3.52 35.2
122 1 1.76 5.28 35.2
123 1 0.0 5.28 36.96
124 1 1.76 3.52 36.96
125 1 0.0 3.52 38.72
126 1 1.76 5.28 38.72
127 1 0.0 5.28 40.48
128 1 1.76 3.52 40.48
129 1 0.0 3.52 42.24
130 1 1.76 5.28 42.24
131 1 0.0 5.28 44.0
132 1 1.76 3.52 44.0
133 1 0.0 3.52 45.76
134 1 1.76 5.28 45.76
135 1 0.0 5.28 47.52
136 1 1.76 3.52 47.52
137 1 0.0 3.52 49.28
138 1 1.76 5.28 49.28
139 1 0.0 5.28 51.04
140 1 1.76 3.52 51.04
141 1 0.0 3.52 52.8
142 1 1.76 5.28 52.8
143 1 0.0 5.28 54.56
144 1 1.76 3.52 54.56
145 1 0.0 3.52 56.32
146 1 1.76 5.28 56.32
147 1 0.0 5.28 58.08
148 1 1.76 3.52 58.08
149 1 0.0 3.52 59.84
150 1 1.76 5.28 59.84
151 1 0.0 5.28 61.6
152 1 1.76 3.52 61.6
153 1 0.0 3.52 63.36
154 1 1.76 5.28 63.36
155 1 0.0 5.28 65.12
156 1 1.76 3.52 65.12
157 1 0.0 3.52 66.88
158 1 1.76 5.28 66.88
159 1 0.0 5.28 68.64
160 1 1.76 3.52 68.64
161 1 0.0 7.04 0.0
162 1 1.76 8.8 0.0
163 1 0.0 8.8 1.76
164 1 1.76 7.04 1.76
165 1 0.0 7.04 3.52
166 1 1.76 8.8 3.52
167 1 0.0 8.8 5.28
168 1 1.76 7.04 5.28
169 1 0.0 7.04 7.04
170 1 1.76 8.8 7.04
171 1 0.0 8.8 8.8
172 1 1.76 7.04 8.8
173 1 0.0 7.04 10.56
174 1 1.76 8.8 10.56
175 1 0.0 8.8 12.32
176 1 1.76 7.04 12.32
177 1 0.0 7.04 14.08
178 1 1.76 8.8 14.08
179 1 0.0 8.8 15.84
180 1 1.76 7.04 15.84
181 1 0.0 7.04 17.6
182 1 1.76 8.8 17.6
183 1 0.0 8.8 19.36
184 1 1.76 7.04 19.36
185 1 0.0 7.04 21.12
186 1 1.76 8.8 21.12
187 1 0.0 8.8 22.88
188 1 1.76 7.04 22.88
189 1 0.0 7.04 24.64
190 1 1.76 8.8 24.64
191 1 0.0 8.8 26.4
192 1 1.76 7.04 26.4
193 1 0.0 7.04 28.16
194 1 1.76 8.8 28.16
195 1 0.0 8.8 29.92
196 1 1.76 7.04 29.92
197 1 0.0 7.04 31.68
198 1 1.76 8.8 31.68
199 1 0.0 8.8 33.44
200 1 1.76 7.04 33.44
201 1 0.0 7.04 35.2
202 1 1.76 8.8 35.2
203 1 0.0 8.8 36.96
204 1 1.76 7.04 36.96
205 1 0.0 7.04 38.72
206 1 1.76 8.8 38.72
207 1 0.0 8.8 40.48
208 1 1.76 7.04 40.48
209 1 0.0 7.04 42.24
210 1 1.76 8.8 42.24
211 1 0.0 8.8 44.0
212 1 1.76 7.04 44.0
213 1 0.0 7.04 45.76
214 1 1.76 8.8 45.76
215 1 0.0 8.8 47.52
216 1 1.76 7.04 47.52
217 1 0.0 7.04 49.28
218 1 1.76 8.8 49.28
219 1 0.0 8.8 51.04
220 1 1.76 7.04 51.04
221 1 0.0 7.04 52.8
222 1 1.76 8.8 52.8
223 1 0.0 8.8 54.56
224 1 1.76 7.04 54.56
225 1 0.0 7.04 56.32
226 1 1.76 8.8 56.32
227 1 0.0 8.8 58.08
228 1 1.76 7.04 58.08
229 1 0.0 7.04 59.84
230 1 1.76 8.8 59.84
231 1 0.0 8.8 61.6
232 1 1.76 7.04 61.6
233 1 0.0 7.04 63.36
234 1 1.76 8.8 63.36
235 1 0.0 8.8 65.12
236 1 1.76 7.04 65.12
237 1 0.0 7.04 66.88
238 1 1.76 8.8 66.88
239 1 0.0 8.8 68.64
240 1 1.76 7.04 68.64
241 1 0.0 10.56 0.0
242 1 1.76 12.32 0.0
243 1 0.0 12.32 1.76
244 1 1.76 10.56 1.76
245 1 0.0 10.56 3.52
246 1 1.76 12.32 3.52
247 1 0.0 12.32 5.28
248 1 1.76 10.56 5.28
249 1 0.0 10.56 7.04
250 1 1.76 12.32 7.04
251 1 0.0 12.32 8.8
252 1 1.76 10.56 8.8
253 1 0.0 10.56 10.56
254 1 1.76 12.32 10.56
255 1 0.0 12.32 12.32
256 1 1.76 10.56 12.32
257 1 0.0 10.56 14.08
258 1 1.76 12.32 14.08
259 1 0.0 12.32 15.84
260 1 1.76 10.56 15.84
261 1 0.0 10.56 17.6
262 1 1.76 12.32 17.6
263 1 0.0 12.32 19.36
264 1 1.76 10.56 19.36
265 1 0.0 10.56 21.12
266 1 1.76 12.32 21.12
267 1 0.0 12.32 22.88
268 1 1.76 10.56 22.88
269 1 0.0 10.56 24.64
270 1 1.76 12.32 24.64
271 1 0.0 12.32 26.4
272 1 1.76 10.56 26.4
273 1 0.0 10.56 28.16
274 1 1.76 12.32 28.16
275 1 0.0 12.32 29.92
276 1 1.76 10.56 29.92
277 1 0.0 10.56 31.68
278 1 1.76 12.32 31.68
279 1 0.0 12.32 33.44
280 1 1.76 10.56 33.44
281 1 0.0 10.56 35.2
282 1 1.76 12.32 35.2
283 1 0.0 12.32 36.96
284 1 1.76 10.56 36.96
285 1 0.0 10.56 38.72
286 1 1.76 12.32 38.72
287 1 0.0 12.32 40.48
288 1 1.76 10.56 40.48
289 1 0.0 10.56 42.24
290 1 1.76 12.32 42.24
291 1 0.0 12.32 44.0
292 1 1.76 10.56 44.0
293 1 0.0 10.56 45.76
294 1 1.76 12.32 45.76
295 1 0.0 12.32 47.52
296 1 1.76 10.56 47.52
297 1 0.0 10.56 49.28
298 1 1.76 12.32 49.28
299 1 0.0 12.32 51.04
300 1 1.76 10.56 51.04
301 1 0.0 10.56 52.8
302 1 1.76 12.32 52.8
303 1 0.0 12.32 54.56
304 1 1.76 10.56 54.56
305 1 0.0 10.56 56.32
306 1 1.76 12.32 56.32
307 1 0.0 12.32 58.08
308 1 1.76 10.56 58.08
309 1 0.0 10.56 59.84
310 1 1.76 12.32 59.84
311 1 0.0 12.32 61.6
312 1 1.76 10.56 61.6
313 1 0.0 10.56 63.36
314 1 1.76 12.32 63.36
315 1 0.0 12.32 65.12
316 1 1.76 10.56 65.12
317 1 0.0 10.56 66.88
318 1 1.76 12.32 66.88
319 1 0.0 12.32 68.64
320 1 1.76 10.56 68.64
321 1 0.0 14.08 0.0
322 1 1.76 15.84 0.0
323 1 0.0 15.84 1.76
324 1 1.76 14.08 1.76
325 1 0.0 14.08 3.52
326 1 1.76 15.84 3.52
327 1 0.0 15.84 5.28
328 1 1.76 14.08 5.28
329 1 0.0 14.08 7.04
330 1 1.76 15.84 7.04
331 1 0.0 15.84 8.8
332 1 1.76 14.08 8.8
333 1 0.0 14.08 10.56
334 1 1.76 15.84 10.56
335 1 0.0 15.84 12.32
336 1 1.76 14.08 12.32
337 1 0.0 14.08 14.08
338 1 1.76 15.84 14.08
339 1 0.0 15.84 15.84
340 1 1.76 14.08 15.84
341 1 0.0 14.08 17.6
342 1 1.76 15.84 17.6
343 1 0.0 15.84 19.36
344 1 1.76 14.08 19.36
345 1 0.0 14.08 21.12
346 1 1.76 15.84 21.12
347 1 0.0 15.84 22.88
348 1 1.76 14.08 22.88
349 1 0.0 14.08 24.64
350 1 1.76 15.84 24.64
351 1 0.0 15.84 26.4
352 1 1.76 14.08 26.4
353 1 0.0 14.08 28.16
354 1 1.76 15.84 28.16
355 1 0.0 15.84 29.92
356 1 1.76 14.08 29.92
357 1 0.0 14.08 31.68
358 1 1.76 15.84 31.68
359 1 0.0 15.84 33.44
360 1 1.76 14.08 33.44
361 1 0.0 14.08 35.2
362 1 1.76 15.84 35.2
363 1 0.0 15.84 36.96
364 1 1.76 14.08 36.96
365 1 0.0 14.08 38.72
366 1 1.76 15.84 38.72
367 1 0.0 15.84 40.48
368 1 1.76 14.08 40.48
369 1 0.0 14.08 42.24
370 1 1.76 15.84 42.24
371 1 0.0 15.84 44.0
372 1 1.76 14.08 44.0
373 1 0.0 14.08 45.76
374 1 1.76 15.84 45.76
375 1 0.0 15.84 47.52
376 1 1.76 14.08 47.52
377 1 0.0 14.08 49.28
378 1 1.76 15.84 49.28
379 1 0.0 15.84 51.04
380 1 1.76 14.08 51.04
381 1 0.0 14.08 52.8
382 1 1.76 15.84 52.8
383 1 0.0 15.84 54.56
384 1 1.76 14.08 54.56
385 1 0.0 14.08 56.32
386 1 1.76 15.84 56.32
387 1 0.0 15.84 58.08
388 1 1.76 14.08 58.08
389 1 0.0 14.08 59.84
390 1 1.76 15.84 59.84
391 1 0.0 15.84 61.6
392 1 1.76 14.08 61.6
393 1 0.0 14.08 63.36
394 1 1.76 15.84 63.36
395 1 0.0 15.84 65.12
396 1 1.76 14.08 65.12
397 1 0.0 14.08 66.88
398 1 1.76 15.84 66.88
399 1 0.0 15.84 68.64
400 1 1.76 14.08 68.64
401 1 0.0 17.6 0.0
402 1 1.76 19.36 0.0
403 1 0.0 19.36 1.76
404 1 1.76 17.6 1.76
405 1 0.0 17.6 3.52
406 1 1.76 19.36 3.52
407 1 0.0 19.36 5.28
408 1 1.76 17.6 5.28
409 1 0.0 17.6 7.04
410 1 1.76 19.36 7.04
411 1 0.0 19.36 8.8
412 1 1.76 17.6 8.8
413 1 0.0 17.6 10.56
414 1 1.76 19.36 10.56
415 1 0.0 19.36 12.32
416 1 1.76 17.6 12.32
417 1 0.0 17.6 14.08
418 1 1.76 19.36 14.08
419 1 0.0 19.36 15.84
420 1 1.76 17.6 15.84
421 1 0.0 17.6 17.6
422 1 1.76 19.36 17.6
423 1 0.0 19.36 19.36
424 1 1.76 17.6 19.36
425 1 0.0 17.6 21.12
426 1 1.76 19.36 21.12
427 1 0.0 19.36 22.88
428 1 1.76 17.6 22.88
429 1 0.0 17.6 24.64
430 1 1.76 19.36 24.64
431 1 0.0 19.36 26.4
432 1 1.76 17.6 26.4
433 1 0.0 17.6 28.16
434 1 1.76 19.36 28.16
435 1 0.0 19.36 29.92
436 1 1.76 17.6 29.92
437 1 0.0 17.6 31.68
438 1 1.76 19.36 31.68
439 1 0.0 19.36 33.44
440 1 1.76 17.6 33.44
441 1 0.0 17.6 35.2
442 1 1.76 19.36 35.2
443 1 0.0 19.36 36.96
444 1 1.76 17.6 36.96
445 1 0.0 17.6 38.72
446 1 1.76 19.36 38.72
447 1 0.0 19.36 40.48
448 1 1.76 17.6 40.48
449 1 0.0 17.6 42.24
450 1 1.76 19.36 42.24
451 1 0.0 19.36 44.0
452 1 1.76 17.6 44.0
453 1 0.0 17.6 45.76
454 1 1.76 19.36 45.76
455 1 0.0 19.36 47.52
456 1 1.76 17.6 47.52
457 1 0.0 17.6 49.28
458 1 1.76 19.36 49.28
459 1 0.0 19.36 51.04
460 1 1.76 17.6 51.04
461 1 0.0 17.6 52.8
462 1 1.76 19.36 52.8
463 1 0.0 19.36 54.56
464 1 1.76 17.6 54.56
465 1 0.0 17.6 56.32
466 1 1.76 19.36 56.32
467 1 0.0 19.36 58.08
468 1 1.76 17.6 58.08
469 1 0.0 17.6 59.84
470 1 1.76 19.36 59.84
471 1 0.0 19.36 61.6
472 1 1.76 17.6 61.6
473 1 0.0 17.6 63.36
474 1 1.76 19.36 63.36
475 1 0.0 19.36 65.12
476 1 1.76 17.6 65.12
477 1 0.0 17.6 66.88
478 1 1.76 19.36 66.88
479 1 0.0 19.36 68.64
480 1 1.76 17.6 68.64
481 1 0.0 21.12 0.0
482 1 1.76 22.88 0.0
483 1 0.0 22.88 1.76
484 1 1.76 21.12 1.76
485 1 0.0 21.12 3.52
486 1 1.76 22.88 3.52
487 1 0.0 22.88 5.28
488 1 1.76 21.12 5.28
489 1 0.0 21.12 7.04
490 1 1.76 22.88 7.04
491 1 0.0 22.88 8.8
492 1 1.76 21.12 8.8
493 1 0.0 21.12 10.56
494 1 1.76 22.88 10.56
495 1 0.0 22.88 12.32
496 1 1.76 21.12 12.32
497 1 0.0 21.12 14.08
498 1 1.76 22.88 14.08
499 1 0.0 22.88 15.84
500 1 1.76 21.12 15.84
501 1 0.0 21.12 17.6
502 1 1.76 22.88 17.6
503 1 0.0 22.88 19.36
504 1 1.76 21.12 19.36
505 1 0.0 21.12 21.12
506 1 1.76 22.88 21.12
507 1 0.0 22.88 22.88
508 1 1.76 21.12 22.88
509 1 0.0 21.12 24.64
510 1 1.76 22.88 24.64
511 1 0.0 22.88 26.4
512 1 1.76 21.12 26.4
513 1 0.0 21.12 28.16
514 1 1.76 22.88 28.16
515 1 0.0 22.88 29.92
516 1 1.76 21.12 29.92
517 1 0.0 21.12 31.68
518 1 1.76 22.88 31.68
519 1 0.0 22.88 33.44
520 1 1.76 21.12 33.44
521 1 0.0 21.12 35.2
522 1 1.76 22.88 35.2
523 1 0.0 22.88 36.96
524 1 1.76 21.12 36.96
525 1 0.0 21.12 38.72
526 1 1.76 22.88 38.72
527 1 0.0 22.88 40.48
528 1 1.76 21.12 40.48
529 1 0.0 21.12 42.24
530 1 1.76 22.88 42.24
531 1 0.0 22.88 44.0
532 1 1.76 21.12 44.0
533 1 0.0 21.12 45.76
534 1 1.76 22.88 45.76
535 1 0.0 22.88 47.52
536 1 1.76 21.12 47.52
537 1 0.0 21.12 49.28
538 1 1.76 22.88 49.28
539 1 0.0 22.88 51.04
540 1 1.76 21.12 51.04
541 1 0.0 21.12 52.8
542 1 1.76 22.88 52.8
543 1 0.0 22.88 54.56
544 1 1.76 21.12 54.56
545 1 0.0 21.12 56.32
546 1 1.76 22.88 56.32
547 1 0.0 22.88 58.08
548 1 1.76 21.12 58.08
549 1 0.0 21.12 59.84
550 1 1.76 22.88 59.84
551 1 0.0 22.88 61.6
552 1 1.76 21.12 61.6
553 1 0.0 21.12 63.36
554 1 1.76 22.88 63.36
555 1 0.0 22.88 65.12
556 1 1.76 21.12 65.12
557 1 0.0 21.12 66.88
558 1 1.76 22.88 66.88
559 1 0.0 22.88 68.64
560 1 1.76 21.12 68.64
561 1 0.0 24.64 0.0
562 1 1.76 26.4 0.0
563 1 0.0 26.4 1.76
564 1 1.76 24.64 1.76
565 1 0.0 24.64 3.52
566 1 1.76 26.4 3.52
567 1 0.0 26.4 5.28
568 1 1.76 24.64 5.28
569 1 0.0 24.64 7.04
570 1 1.76 26.4 7.04
571 1 0.0 26.4 8.8
572 1 1.76 24.64 8.8
573 1 0.0 24.64 10.56
574 1 1.76 26.4 10.56
575 1 0.0 26.4 12.32
576 1 1.76 24.64 12.32
577 1 0.0 24.64 14.08
578 1 1.76 26.4 14.08
579 1 0.0 26.4 15.84
580 1 1.76 24.64 15.84
581 1 0.0 24.64 17.6
582 1 1.76 26.4 17.6
583 1 0.0 26.4 19.36
584 1 1.76 24.64 19.36
585 1 0.0 24.64 21.12
586 1 1.76 26.4 21.12
587 1 0.0 26.4 22.88
588 1 1.76 24.64 22.88
589 1 0.0 24.64 24.64
590 1 1.76 26.4 24.64
591 1 0.0 26.4 26.4
592 1 1.76 24.64 26.4
593 1 0.0 24.64 28.16
594 1 1.76 26.4 28.16
595 1 0.0 26.4 29.92
596 1 1.76 24.64 29.92
597 1 0.0 24.64 31.68
598 1 1.76 26.4 31.68
599 1 0.0 26.4 33.44
600 1 1.76 24.64 33.44
601 1 0.0 24.64 35.2
602 1 1.76 26.4 35.2
603 1 0.0 26.4 36.96
604 1 1.76 24.64 36.96
605 1 0.0 24.64 38.72
606 1 1.76 26.4 38.72
607 1 0.0 26.4 40.48
608 1 1.76 24.64 40.48
609 1 0.0 24.64 42.24
610 1 1.76 26.4 42.24
611 1 0.0 26.4 44.0
612 1 1.76 24.64 44.0
613 1 0.0 24.64 45.76
614 1 1.76 26.4 45.76
615 1 0.0 26.4 47.52
616 1 1.76 24.64 47.52
617 1 0.0 24.64 49.28
618 1 1.76 26.4 49.28
619 1 0.0 26.4 51.04
620 1 1.76 24.64 51.04
621 1 0.0 24.64 52.8
622 1 1.76 26.4 52.8
623 1 0.0 26.4 54.56
624 1 1.76 24.64 54.56
625 1 0.0 24.64 56.32
626 1 1.76 26.4 56.32
627 1 0.0 26.4 58.08
628 1 1.76 24.64 58.08
629 1 0.0 24.64 59.84
630 1 1.76 26.4 59.84
631 1 0.0 26.4 61.6
632 1 1.76 24.64 61.6
633 1 0.0 24.64 63.36
634 1 1.76 26.4 63.36
635 1 0.0 26.4 65.12
636 1 1.76 24.64 65.12
637 1 0.0 24.64 66.88
638 1 1.76 26.4 66.88
639 1 0.0 26.4 68.64
640 1 1.76 24.64 68.64
641 1 0.0 28.16 0.0
642 1 1.76 29.92 0.0
643 1 0.0 29.92 1.76
644 1 1.76 28.16 1.76
645 1 0.0 28.16 3.52
646 1 1.76 29.92 3.52
647 1 0.0 29.92 5.28
648 1 1.76 28.16 5.28
649 1 0.0 28.16 7.04
650 1 1.76 29.92 7.04
651 1 0.0 29.92 8.8
652 1 1.76 28.16 8.8
653 1 0.0 28.16 10.56
654 1 1.76 29.92 10.56
655 1 0.0 29.92 12.32
656 1 1.76 28.16 12.32
657 1 0.0 28.16 14.08
658 1 1.76 29.92 14.08
659 1 0.0 29.92 15.84
660 1 1.76 28.16 15.84
661 1 0.0 28.16 17.6
662 1 1.76 29.92 17.6
663 1 0.0 29.92 19.36
664 1 1.76 28.16 19.36
665 1 0.0 28.16 21.12
666 1 1.76 29.92 21.12
667 1 0.0 29.92 22.88
668 1 1.76 28.16 22.88
669 1 0.0 28.16 24.64
670 1 1.76 29.92 24.64
671 1 0.0 29.92 26.4
672 1 1.76 28.16 26.4
673 1 0.0 28.16 28.16
674 1 1.76 29.92 28.16
675 1 0.0 29.92 29.92
676 1 1.76 28.16 29.92
677 1 0.0 28.16 31.68
678 1 1.76 29.92 31.68
679 1 0.0 29.92 33.44
680 1 1.76 28.16 33.44
681 1 0.0 28.16 35.2
682 1 1.76 29.92 35.2
683 1 0.0 29.92 36.96
684 1 1.76 28.16 36.96
685 1 0.0 28.16 38.72
686 1 1.76 29.92 38.72
687 1 0.0 29.92 40.48
688 1 1.76 28.16 40.48
689 1 0.0 28.16 42.24
690 1 1.76 29.92 42.24
691 1 0.0 29.92 44.0
692 1 1.76 28.16 44.0
693 1 0.0 28.16 45.76
694 1 1.76 29.92 45.76
695 1 0.0 29.92 47.52
696 1 1.76 28.16 47.52
697 1 0.0 28.16 49.28
698 1 1.76 29.92 49.28
699 1 0.0 29.92 51.04
700 1 1.76 28.16 51.04
701 1 0.0 28.16 52.8
702 1 1.76 29.92 52.8
703 1 0.0 29.92 54.56
704 1 1.76 28.16 54.56
705 1 0.0 28.16 56.32
706 1 1.76 29.92 56.32
707 1 0.0 29.92 58.08
708 1 1.76 28.16 58.08
709 1 0.0 28.16 59.84
710 1 1.76 29.92 59.84
711 1 0.0 29.92 61.6
712 1 1.76 28.16 61.6
713 1 0.0 28.16 63.36
714 1 1.76 29.92 63.36
715 1 0.0 29.92 65.12
716 1 1.76 28.16 65.12
717 1 0.0 28.16 66.88
718 1 1.76 29.92 66.88
719 1 0.0 29.92 68.64
720 1 1.76 28.16 68.64
721 1 0.0 31.68 0.0
722 1 1.76 33.44 0.0
723 1 0.0 33.44 1.76
724 1 1.76 31.68 1.76
725 1 0.0 31.68 3.52
726 1 1.76 33.44 3.52
727 1 0.0 33.44 5.28
728 1 1.76 31.68 5.28
729 1 0.0 31.68 7.04
730 1 1.76 33.44 7.04
731 1 0.0 33.44 8.8
732 1 1.76 31.68 8.8
733 1 0.0 31.68 10.56
734 1 1.76 33.44 10.56
735 1 0.0 33.44 12.32
736 1 1.76 31.68 12.32
737 1 0.0 31.68 14.08
738 1 1.76 33.44 14.08
739 1 0.0 33.44 15.84
740 1 1.76 31.68 15.84
741 1 0.0 31.68 17.6
742 1 1.76 33.44 17.6
743 1 0.0 33.44 19.36
744 1 1.76 31.68 19.36
745 1 0.0 31.68 21.12
746 1 1.76 33.44 21.12
747 1 0.0 33.44 22.88
748 1 1.76 31.68 22.88
749 1 0.0 31.68 24.64
750 1 1.76 33.44 24.64
751 1 0.0 33.44 26.4
752 1 1.76 31.68 26.4
753 1 0.0 31.68 28.16
754 1 1.76 33.44 28.16
755 1 0.0 33.44 29.92
756 1 1.76 31.68 29.92
757 1 0.0 31.68 31.68
758 1 1.76 33.44 31.68
759 1 0.0 33.44 33.44
760 1 1.76 31.68 33.44
761 1 0.0 31.68 35.2
762 1 1.76 33.44 35.2
763 1 0.0 33.44 36.96
764 1 1.76 31.68 36.96
765 1 0.0 31.68 38.72
766 1 1.76 33.44 38.72
767 1 0.0 33.44 40.48
768 1 1.76 31.68 40.48
769 1 0.0 31.68 42.24
770 1 1.76 33.44 42.24
771 1 0.0 33.44 44.0
772 1 1.76 31.68 44.0
773 1 0.0 31.68 45.76
774 1 1.76 33.44 45.76
775 1 0.0 33.44 47.52
776 1 1.76 31.68 47.52
777 1 0.0 31.68 49.28
778 1 1.76 33.44 49.28
779 1 0.0 33.44 51.04
780 1 1.76 31.68 51.04
781 1 0.0 31.68 52.8
782 1 1.76 33.44 52.8
783 1 0.0 33.44 54.56
784 1 1.76 31.68 54.56
785 1 0.0 31.68 56.32
786 1 1.76 33.44 56.32
787 1 0.0 33.44 58.08
788 1 1.76 31.68 58.08
789 1 0.0 31.68 59.84
790 1 1.76 33.44 59.84
791 1 0.0 33.44 61.6
792 1 1.76 31.68 61.6
793 1 0.0 31.68 63.36
794 1 1.76 33.44 63.36
795 1 0.0 33.44 65.12
796 1 1.76 31.68 65.12
797 1 0.0 31.68 66.88
798 1 1.76 33.44 66.88
799 1 0.0 33.44 68.64
800 1 1.76 31.68 68.64
801 1 0.0 35.2 0.0
802 1 1.76 36.96 0.0
803 1 0.0 36.96 1.76
804 1 1.76 35.2 1.76
805 1 0.0 35.2 3.52
806 1 1.76 36.96 3.52
807 1 0.0 36.96 5.28
808 1 1.76 35.2 5.28
809 1 0.0 35.2 7.04
810 1 1.76 36.96 7.04
811 1 0.0 36.96 8.8
812 1 1.76 35.2 8.8
813 1 0.0 35.2 10.56
814 1 1.76 36.96 10.56
815 1 0.0 36.96 12.32
816 1 1.76 35.2 12.32
817 1 0.0 35.2 14.08
818 1 1.76 36.96 14.08
819 1 0.0 36.96 15.84
820 1 1.76 35.2 15.84
821 1 0.0 35.2 17.6
822 1 1.76 36.96 17.6
823 1 0.0 36.96 19.36
824 1 1.76 35.2 19.36
825 1 0.0 35.2 21.12
826 1 1.76 36.96 21.12
827 1 0.0 36.96 22.88
828 1 1.76 35.2 22.88
829 1 0.0 35.2 24.64
830 1 1.76 36.96 24.64
831 1 0.0 36.96 26.4
832 1 1.76 35.2 26.4
833 1 0.0 35.2 28.16
834 1 1.76 36.96 28.16
835 1 0.0 36.96 29.92
836 1 1.76 35.2 29.92
837 1 0.0 35.2 31.68
838 1 1.76 36.96 31.68
839 1 0.0 36.96 33.44
840 1 1.76 35.2 33.44
841 1 0.0 35.2 35.2
842 1 1.76 36.96 35.2
843 1 0.0 36.96 36.96
844 1 1.76 35.2 36.96
845 1 0.0 35.2 38.72
846 1 1.76 36.96 38.72
847 1 0.0 36.96 40.48
848 1 1.76 35.2 40.48
849 1 0.0 35.2 42.24
850 1 1.76 36.96 42.24
851 1 0.0 36.96 44.0
852 1 1.76 35.2 44.0
853 1 0.0 35.2 45.76
854 1 1.76 36.96 45.76
855 1 0.0 36.96 47.52
856 1 1.76 35.2 47.52
857 1 0.0 35.2 49.28
858 1 1.76 36.96 49.28
859 1 0.0 36.96 51.04
860 1 1.76 35.2 51.04
861 1 0.0 35.2 52.8
862 1 1.76 36.96 52.8
863 1 0.0 36.96 54.56
864 1 1.76 35.2 54.56
865 1 0.0 35.2 56.32
866 1 1.76 36.96 56.32
867 1 0.0 36.96 58.08
868 1 1.76 35.2 58.08
869 1 0.0 35.2 59.84
870 1 1.76 36.96 59.84
871 1 0.0 36.96 61.6
872 1 1.76 35.2 61.6
873 1 0.0 35.2 63.36
874 1 1.76 36.96 63.36
875 1 0.0 36.96 65.12
876 1 1.76 35.2 65.12
877 1 0.0 35.2 66.88
878 1 1.76 36.96 66.88
879 1 0.0 36.96 68.64
880 1 1.76 35.2 68.64
881 1 0.0 38.72 0.0
882 1 1.76 40.48 0.0
883 1 0.0 40.48 1.76
884 1 1.76 38.72 1.76
885 1 0.0 38.72 3.52
886 1 1.76 40.48 3.52
887 1 0.0 40.48 5.28
888 1 1.76 38.72 5.28
889 1 0.0 38.72 7.04
890 1 1.76 40.48 7.04
891 1 0.0 40.48 8.8
892 1 1.76 38.72 8.8
893 1 0.0 38.72 10.56
894 1 1.76 40.48 10.56
895 1 0.0 40.48 12.32
896 1 1.76 38.72 12.32
897 1 0.0 38.72 14.08
898 1 1.76 40.48 14.08
899 1 0.0 40.48 15.84
900 1 1.76 38.72 15.84
901 1 0.0 38.72 17.6
902 1 1.76 40.48 17.6
903 1 0.0 40.48 19.36
904 1 1.76 38.72 19.36
905 1 0.0 38.72 21.12
906 1 1.76 40.48 21.12
907 1 0.0 40.48 22.88
908 1 1.76 38.72 22.88
909 1 0.0 38.72 24.64
910 1 1.76 40.48 24.64
911 1 0.0 40.48 26.4
912 1 1.76 38.72 26.4
913 1 0.0 38.72 28.16
914 1 1.76 40.48 28.16
915 1 0.0 40.48 29.92
916 1 1.76 38.72 29.92
917 1 0.0 38.72 31.68
918 1 1.76 40.48 31.68
919 1 0.0 40.48 33.44
920 1 1.76 38.72 33.44
921 1 0.0 38.72 35.2
922 1 1.76 40.48 35.2
923 1 0.0 40.48 36.96
924 1 1.76 38.72 36.96
925 1 0.0 38.72 38.72
926 1 1.76 40.48 38.72
927 1 0.0 40.48 40.48
928 1 1.76 38.72 40.48
929 1 0.0 38.72 42.24
930 1 1.76 40.48 42.24
931 1 0.0 40.48 44.0
932 1 1.76 38.72 44.0
933 1 0.0 38.72 45.76
934 1 1.76 40.48 45.76
935 1 0.0 40.48 47.52
936 1 1.76 38.72 47.52
937 1 0.0 38.72 49.28
938 1 1.76 40.48 49.28
939 1 0.0 40.48 51.04
940 1 1.76 38.72 51.04
941 1 0.0 38.72 52.8
942 1 1.76 40.48 52.8
943 1 0.0 40.48 54.56
944 1 1.76 38.72 54.56
945 1 0.0 38.72 56.32
946 1 1.76 40.48 56.32
947 1 0.0 40.48 58.08
948 1 1.76 38.72 58.08
949 1 0.0 38.72 59.84
950 1 1.76 40.48 59.84
951 1 0.0 40.48 61.6
952 1 1.76 38.72 61.6
953 1 0.0 38.72 63.36
954 1 1.76 40.48 63.36
955 1 0.0 40.48 65.12
956 1 1.76 38.72 65.12
957 1 0.0 38.72 66.88
958 1 1.76 40.48 66.88
959 1 0.0 40.48 68.64
960 1 1.76 38.72 68.64
961 1 0.0 42.24 0.0
962 1 1.76 44.0 0.0
963 1 0.0 44.0 1.76
964 1 1.76 42.24 1.76
965 1 0.0 42.24 3.52
966 1 1.76 44.0 3.52
967 1 0.0 44.0 5.28
968 1 1.76 42.24 5.28
969 1 0.0 42.24 7.04
970 1 1.76 44.0 7.04
971 1 0.0 44.0 8.8
972 1 1.76 42.24 8.8
973 1 0.0 42.24 10.56
974 1 1.76 44.0 10.56
975 1 0.0 44.0 12.32
976 1 1.76 42.24 12.32
977 1 0.0 42.24 14.08
978 1 1.76 44.0 14.08
979 1 0.0 44.0 15.84
980 1 1.76 42.24 15.84
981 1 0.0 42.24 17.6
982 1 1.76 44.0 17.6
983 1 0.0 44.0 19.36
984 1 1.76 42.24 19.36
985 1 0.0 42.24 21.12
986 1 1.76 44.0 21.12
987 1 0.0 44.0 22.88
988 1 1.76 42.24 22.88
989 1 0.0 42.24 24.64
990 1 1.76 44.0 24.64
991 1 0.0 44.0 26.4
992 1 1.76 42.24 26.4
993 1 0.0 42.24 28.16
994 1 1.76 44.0 28.16
995 1 0.0 44.0 29.92
996 1 1.76 42.24 29.92
997 1 0.0 42.24 31.68
998 1 1.76 44.0 31.68
999 1 0.0 44.0 33.44
1000 1 1.76 42.24 33.44
1001 1 0.0 42.24 35.2
1002 1 1.76 44.0 35.2
1003 1 0.0 44.0 36.96
1004 1 1.76 42.24 36.96
1005 1 0.0 42.24 38.72
1006 1 1.76 44.0 38.72
1007 1 0.0 44.0 40.48
1008 1 1.76 42.24 40.48
1009 1 0.0 42.24 42.24
1010 1 1.76 44.0 42.24
1011 1 0.0 44.0 44.0
1012 1 1.76 42.24 44.0
1013 1 0.0 42.24 45.76
1014 1 1.76 44.0 45.76
1015 1 0.0 44.0 47.52
1016 1 1.76 42.24 47.52
1017 1 0.0 42.24 49.28
1018 1 1.76 44.0 49.28
1019 1 0.0 44.0 51.04
1020 1 1.76 42.24 51.04
1021 1 0.0 42.24 52.8
1022 1 1.76 44.0 52.8
1023 1 0.0 44.0 54.56
1024 1 1.76 42.24 54.56
1025 1 0.0 42.24 56.32
1026 1 1.76 44.0 56.32
1027 1 0.0 44.0 58.08
1028 1 1.76 42.24 58.08
1029 1 0.0 42.24 59.84
1030 1 1.76 44.0 59.84
1031 1 0.0 44.0 61.6
1032 1 1.76 42.24 61.6
1033 1 0.0 42.24 63.36
1034 1 1.76 44.0 63.36
1035 1 0.0 44.0 65.12
1036 1 1.76 42.24 65.12
1037 1 0.0 42.24 66.88
1038 1 1.76 44.0 66.88
1039 1 0.0 44.0 68.64
1040 1 1.76 42.24 68.64
1041 1 0.0 45.76 0.0
1042 1 1.76 47.52 0.0
1043 1 0.0 47.52 1.76
1044 1 1.76 45.76 1.76
1045 1 0.0 45.76 3.52
1046 1 1.76 47.52 3.52
1047 1 0.0 47.52 5.28
1048 1 1.76 45.76 5.28
1049 1 0.0 45.76 7.04
1050 1 1.76 47.52 7.04
1051 1 0.0 47.52 8.8
1052 1 1.76 45.76 8.8
1053 1 0.0 45.76 10.56
1054 1 1.76 47.52 10.56
1055 1 0.0 47.52 12.32
1056 1 1.76 45.76 12.32
1057 1 0.0 45.76 14.08
1058 1 1.76 47.52 14.08
1059 1 0.0 47.52 15.84
1060 1 1.76 45.76 15.84
1061 1 0.0 45.76 17.6
1062 1 1.76 47.52 17.6
1063 1 0.0 47.52 19.36
1064 1 1.76 45.76 19.36
1065 1 0.0 45.76 21.12
1066 1 1.76 47.52 21.12
1067 1 0.0 47.52 22.88
1068 1 1.76 45.76 22.88
1069 1 0.0 45.76 24.64
1070 1 1.76 47.52 24.64
1071 1 0.0 47.52 26.4
1072 1 1.76 45.76 26.4
1073 1 0.0 45.76 28.16
1074 1 1.76 47.52 28.16
1075 1 0.0 47.52 29.92
1076 1 1.76 45.76 29.92
1077 1 0.0 45.76 31.68
1078 1 1.76 47.52 31.68
1079 1 0.0 47.52 33.44
1080 1 1.76 45.76 33.44
1081 1 0.0 45.76 35.2
1082 1 1.76 47.52 35.2
1083 1 0.0 47.52 36.96
1084 1 1.76 45.76 36.96
1085 1 0.0 45.76 38.72
1086 1 1.76 47.52 38.72
1087 1 0.0 47.52 40.48
1088 1 1.76 45.76 40.48
1089 1 0.0 45.76 42.24
1090 1 1.76 47.52 42.24
1091 1 0.0 47.52 44.0
1092 1 1.76 45.76 44.0
1093 1 0.0 45.76 45.76
1094 1 1.76 47.52 45.76
1095 1 0.0 47.52 47.52
1096 1 1.76 45.76 47.52
1097 1 0.0 45.76 49.28
1098 1 1.76 47.52 49.28
1099 1 0.0 47.52 51.04
1100 1 1.76 45.76 51.04
1101 1 0.0 45.76 52.8
1102 1 1.76 47.52 52.8
1103 1 0.0 47.52 54.56
1104 1 1.76 45.76 54.56
1105 1 0.0 45.76 56.32
1106 1 1.76 47.52 56.32
1107 1 0.0 47.52 58.08
1108 1 1.76 45.76 58.08
1109 1 0.0 45.76 59.84
1110 1 1.76 47.52 59.84
1111 1 0.0 47.52 61.6
1112 1 1.76 45.76 61.6
1113 1 0.0 45.76 63.36
1114 1 1.76 47.52 63.36
1115 1 0.0 47.52 65.12
1116 1 1.76 45.76 65.12
1117 1 0.0 45.76 66.88
1118 1 1.76 47.52 66.88
1119 1 0.0 47.52 68.64
1120 1 1.76 45.76 68.64
1121 1 0.0 49.28 0.0
1122 1 1.76 51.04 0.0
1123 1 0.0 51.04 1.76
1124 1 1.76 49.28 1.76
1125 1 0.0 49.28 3.52
1126 1 1.76 51.04 3.52
1127 1 0.0 51.04 5.28
1128 1 1.76 49.28 5.28
1129 1 0.0 49.28 7.04
1130 1 1.76 51.04 7.04
1131 1 0.0 51.04 8.8
1132 1 1.76 49.28 8.8
1133 1 0.0 49.28 10.56
1134 1 1.76 51.04 10.56
1135 1 0.0 51.04 12.32
1136 1 1.76 49.28 12.32
1137 1 0.0 49.28 14.08
1138 1 1.76 51.04 14.08
1139 1 0.0 51.04 15.84
1140 1 1.76 49.28 15.84
1141 1 0.0 49.28 17.6
1142 1 1.76 51.04 17.6
1143 1 0.0 51.04 19.36
1144 1 1.76 49.28 19.36
1145 1 0.0 49.28 21.12
1146 1 1.76 51.04 21.12
1147 1 0.0 51.04 22.88
1148 1 1.76 49.28 22.88
1149 1 0.0 49.28 24.64
1150 1 1.76 51.04 24.64
1151 1 0.0 51.04 26.4
1152 1 1.76 49.28 26.4
1153 1 0.0 49.28 28.16
1154 1 1.76 51.04 28.16
1155 1 0.0 51.04 29.92
1156 1 1.76 49.28 29.92
1157 1 0.0 49.28 31.68
1158 1 1.76 51.04 31.68
1159 1 0.0 51.04 33.44
1160 1 1.76 49.28 33.44
1161 1 0.0 49.28 35.2
1162 1 1.76 51.04 35.2
1163 1 0.0 51.04 36.96
1164 1 1.76 49.28 36.96
1165 1 0.0 49.28 38.72
1166 1 1.76 51.04 38.72
1167 1 0.0 51.04 40.48
1168 1 1.76 49.28 40.48
1169 1 0.0 49.28 42.24
1170 1 1.76 51.04 42.24
1171 1 0.0 51.04 44.0
1172 1 1.76 49.28 44.0
1173 1 0.0 49.28 45.76
1174 1 1.76 51.04 45.76
1175 1 0.0 51.04 47.52
1176 1 1.76 49.28 47.52
1177 1 0.0 49.28 49.28
1178 1 1.76 51.04 49.28
1179 1 0.0 51.04 51.04
1180 1 1.76 49.28 51.04
1181 1 0.0 49.28 52.8
1182 1 1.76 51.04 52.8
1183 1 0.0 51.04 54.56
1184 1 1.76 49.28 54.56
1185 1 0.0 49.28 56.32
1186 1 1.76 51.04 56.32
1187 1 0.0 51.04 58.08
1188 1 1.76 49.28 58.08
1189 1 0.0 49.28 59.84
1190 1 1.76 51.04 59.84
1191 1 0.0 51.04 61.6
1192 1 1.76 49.28 61.6
1193 1 0.0 49.28 63.36
1194 1 1.76 51.04 63.36
1195 1 0.0 51.04 65.12
1196 1 1.76 49.28 65.12
1197 1 0.0 49.28 66.88
1198 1 1.76 51.04 66.88
1199 1 0.0 51.04 68.64
1200 1 1.76 49.28 68.64
1201 1 0.0 52.8 0.0
1202 1 1.76 54.56 0.0
1203 1 0.0 54.56 1.76
1204 1 1.76 52.8 1.76
1205 1 0.0 52.8 3.52
1206 1 1.76 54.56 3.52
1207 1 0.0 54.56 5.28
1208 1 1.76 52.8 5.28
1209 1 0.0 52.8 7.04
1210 1 1.76 54.56 7.04
1211 1 0.0 54.56 8.8
1212 1 1.76 52.8 8.8
1213 1 0.0 52.8 10.56
1214 1 1.76 54.56 10.56
1215 1 0.0 54.56 12.32
1216 1 1.76 52.8 12.32
1217 1 0.0 52.8 14.08
1218 1 1.76 54.56 14.08
1219 1 0.0 54.56 15.84
1220 1 1.76 52.8 15.84
1221 1 0.0 52.8 17.6
1222 1 1.76 54.56 17.6
1223 1 0.0 54.56 19.36
1224 1 1.76 52.8 19.36
1225 1 0.0 52.8 21.12
1226 1 1.76 54.56 21.12
1227 1 0.0 54.56 22.88
1228 1 1.76 52.8 22.88
1229 1 0.0 52.8 24.64
1230 1 1.76 54.56 24.64
1231 1 0.0 54.56 26.4
1232 1 1.76 52.8 26.4
1233 1 0.0 52.8 28.16
1234 1 1.76 54.56 28.16
1235 1 0.0 54.56 29.92
1236 1 1.76 52.8 29.92
1237 1 0.0 52.8 31.68
1238 1 1.76 54.56 31.68
1239 1 0.0 54.56 33.44
1240 1 1.76 52.8 33.44
1241 1 0.0 52.8 35.2
1242 1 1.76 54.56 35.2
1243 1 0.0 54.56 36.96
1244 1 1.76 52.8 36.96
1245 1 0.0 52.8 38.72
1246 1 1.76 54.56 38.72
1247 1 0.0 54.56 40.48
1248 1 1.76 52.8 40.48
1249 1 0.0 52.8 42.24
1250 1 1.76 54.56 42.24
1251 1 0.0 54.56 44.0
1252 1 1.76 52.8 44.0
1253 1 0.0 52.8 45.76
1254 1 1.76 54.56 45.76
1255 1 0.0 54.56 47.52
1256 1 1.76 52.8 47.52
1257 1 0.0 52.8 49.28
1258 1 1.76 54.56 49.28
1259 1 0.0 54.56 51.04
1260 1 1.76 52.8 51.04
1261 1 0.0 52.8 52.8
1262 1 1.76 54.56 52.8
1263 1 0.0 54.56 54.56
1264 1 1.76 52.8 54.56
1265 1 0.0 52.8 56.32
1266 1 1.76 54.56 56.32
1267 1 0.0 54.56 58.08
1268 1 1.76 52.8 58.08
1269 1 0.0 52.8 59.84
1270 1 1.76 54.56 59.84
1271 1 0.0 54.56 61.6
1272 1 1.76 52.8 61.6
1273 1 0.0 52.8 63.36
1274 1 1.76 54.56 63.36
1275 1 0.0 54.56 65.12
1276 1 1.76 52.8 65.12
1277 1 0.0 52.8 66.88
1278 1 1.76 54.56 66.88
1279 1 0.0 54.56 68.64
1280 1 1.76 52.8 68.64
1281 1 0.0 56.32 0.0
1282 1 1.76 58.08 0.0
1283 1 0.0 58.08 1.76
1284 1 1.76 56.32 1.76
1285 1 0.0 56.32 3.52
1286 1 1.76 58.08 3.52
1287 1 0.0 58.08 5.28
1288 1 1.76 56.32 5.28
1289 1 0.0 56.32 7.04
1290 1 1.76 58.08 7.04
1291 1 0.0 58.08 8.8
1292 1 1.76 56.32 8.8
1293 1 0.0 56.32 10.56
1294 1 1.76 58.08 10.56
1295 1 0.0 58.08 12.32
1296 1 1.76 56.32 12.32
1297 1 0.0 56.32 14.08
1298 1 1.76 58.08 14.08
1299 1 0.0 58.08 15.84
1300 1 1.76 56.32 15.84
1301 1 0.0 56.32 17.6
1302 1 1.76 58.08 17.6
1303 1 0.0 58.08 19.36
1304 1 1.76 56.32 19.36
1305 1 0.0 56.32 21.12
1306 1 1.76 58.08 21.12
1307 1 0.0 58.08 22.88
1308 1 1.76 56.32 22.88
1309 1 0.0 56.32 24.64
1310 1 1.76 58.08 24.64
1311 1 0.0 58.08 26.4
1312 1 1.76 56.32 26.4
1313 1 0.0 56.32 28.16
1314 1 1.76 58.08 28.16
1315 1 0.0 58.08 29.92
1316 1 1.76 56.32 29.92
1317 1 0.0 56.32 31.68
1318 1 1.76 58.08 31.68
1319 1 0.0 58.08 33.44
1320 1 1.76 56.32 33.44
1321 1 0.0 56.32 35.2
1322 1 1.76 58.08 35.2
1323 1 0.0 58.08 36.96
1324 1 1.76 56.32 36.96
1325 1 0.0 56.32 38.72
1326 1 1.76 58.08 38.72
1327 1 0.0 58.08 40.48
1328 1 1.76 56.32 40.48
1329 1 0.0 56.32 42.24
1330 1 1.76 58.08 42.24
1331 1 0.0 58.08 44.0
1332 1 1.76 56.32 44.0
1333 1 0.0 56.32 45.76
1334 1 1.76 58.08 45.76
1335 1 0.0 58.08 47.52
1336 1 1.76 56.32 47.52
1337 1 0.0 56.32 49.28
1338 1 1.76 58.08 49.28
1339 1 0.0 58.08 51.04
1340 1 1.76 56.32 51.04
1341 1 0.0 56.32 52.8
1342 1 1.76 58.08 52.8
1343 1 0.0 58.08 54.56
1344 1 1.76 56.32 54.56
1345 1 0.0 56.32 56.32
1346 1 1.76 58.08 56.32
1347 1 0.0 58.08 58.08
1348 1 1.76 56.32 58.08
1349 1 0.0 56.32 59.84
1350 1 1.76 58.08 59.84
1351 1 0.0 58.08 61.6
1352 1 1.76 56.32 61.6
1353 1 0.0 56.32 63.36
1354 1 1.76 58.08 63.36
1355 1 0.0 58.08 65.12
1356 1 1.76 56.32 65.12
1357 1 0.0 56.32 66.88
1358 1 1.76 58.08 66.88
1359 1 0.0 58.08 68.64
1360 1 1.76 56.32 68.64