LAMMPS data file via write_data, version 17 Apr 2024, timestep = 0, units = metal

2440 atoms
2 atom types

0.4012442499964706 72.57934226268296 xlo xhi
0 21.66 ylo yhi
0 21.66 zlo zhi

Masses

1 63.546
2 107.8682

Atoms # atomic

1 1 0.4095771519867425 21.659006895458667 21.65900689545867 0 -1 -1
2 1 2.2073586699330607 1.804294540581081 21.65873355448391 0 0 -1
3 1 0.4095752989146727 1.804137734462013 1.804137734462016 0 0 0
4 1 2.2073586699330594 21.658733554483906 1.8042945405810762 0 -1 0
5 1 0.41003450712207773 21.659075984077486 3.608854542725797 0 -1 0
6 1 2.2077039300433507 1.803386542401946 3.6093621457086362 0 0 0
25 1 0.4100345071220799 3.608854542725798 21.659075984077486 0 0 -1
28 1 2.20770393004335 3.609362145708637 1.8033865424019424 0 0 0
29 1 0.4089442499964706 3.6089962124684765 3.6089962124684747 0 0 0
145 1 4.006533153691986 21.659948474986262 21.659948474986265 0 -1 -1
147 1 4.0075183562776076 1.804391059423918 1.8043910594239232 0 0 0
149 1 4.007244939860586 1.637051421738442e-05 3.6097916226433386 0 0 0
169 1 4.007244939860586 3.6097916226433395 1.637051421528096e-05 0 0 0
173 1 4.0077670964937075 3.608706876429548 3.608706876429551 0 0 0
146 1 5.822708355100171 1.8050935044088727 21.659385745699904 0 0 -1
148 1 5.822708355100167 21.659385745699907 1.8050935044088752 0 -1 0
150 1 5.822734697350951 1.8049776678727605 3.609737761003182 0 0 0
172 1 5.822734697350951 3.6097377610031818 1.8049776678727605 0 0 0
289 1 7.640310005582928 0.00022854555220098007 0.00022854555219833472 0 0 0
291 1 7.6377224249625035 1.805357068772383 1.8053570687723797 0 0 0
293 1 7.639060541314786 3.881873882418448e-05 3.610006999897669 0 0 0
313 1 7.639060541314789 3.610006999897666 3.881873882500571e-05 0 0 0
317 1 7.637327862447435 3.6095318525326077 3.6095318525326054 0 0 0
290 1 9.458116339940764 1.8042103460696 21.65993159206931 0 0 -1
292 1 9.45811633994076 21.65993159206931 1.8042103460695993 0 -1 0
294 1 9.45766336749191 1.8043617409443549 3.6097195928777603 0 0 0
316 1 9.45766336749191 3.6097195928777612 1.8043617409443546 0 0 0
433 1 11.27643577626451 21.65968652887528 21.659686528875277 0 -1 -1
434 1 13.093969275010899 1.8044238688511454 21.659841554378833 0 0 -1
435 1 11.276747476143049 1.8037545858510964 1.8037545858510917 0 0 0
436 1 13.0939692750109 21.659841554378833 1.8044238688511458 0 -1 0
437 1 11.276138660755718 21.659091509509548 3.60987986269865 0 -1 0
438 1 13.09526466940156 1.805006956496479 3.610056128279649 0 0 0
457 1 11.276138660755716 3.6098798626986466 21.65909150950955 0 0 -1
460 1 13.095264669401553 3.6100561282796493 1.80500695649648 0 0 0
461 1 11.27613839887449 3.609783728842309 3.6097837288423027 0 0 0
577 1 14.912569413973406 21.65875687272361 21.658756872723615 0 -1 -1
578 1 16.731402614717165 1.8046688456117725 21.659139300130175 0 0 -1
579 1 14.911905133099689 1.8055174552263185 1.8055174552263147 0 0 0
580 1 16.73140261471717 21.65913930013017 1.8046688456117688 0 -1 0
581 1 14.912309165916422 21.659440788969 3.6103127182182915 0 -1 0
582 1 16.73076257790323 1.8046865402206345 3.6101006700475726 0 0 0
601 1 14.912309165916422 3.6103127182182924 21.659440788968997 0 0 -1
604 1 16.73076257790323 3.6101006700475695 1.804686540220634 0 0 0
605 1 14.912145248826318 3.6108750595420105 3.610875059542018 0 0 0
721 1 18.546950411905687 21.65869707042168 21.658697070421677 0 -1 -1
722 1 20.362054261552114 1.803234421287632 21.658532099961324 0 0 -1
723 1 18.546768076121023 1.803778162275403 1.8037781622754026 0 0 0
724 1 20.36205426155212 21.65853209996133 1.8032344212876308 0 -1 0
725 1 18.54768235644812 21.659384406408694 3.609591148340378 0 -1 0
726 1 20.35964479442582 1.8048750533340194 3.6097160063056752 0 0 0
745 1 18.54768235644812 3.6095911483403764 21.659384406408698 0 0 -1
748 1 20.359644794425826 3.6097160063056757 1.8048750533340217 0 0 0
749 1 18.54590402692585 3.6108038357263883 3.610803835726388 0 0 0
865 1 22.18059991673841 7.848196672551684e-05 7.84819667216843e-05 0 0 0
867 1 22.17356490576241 1.8053956081557798 1.805395608155778 0 0 0
869 1 22.175223874317396 21.659976976358273 3.609530067574747 0 -1 0
889 1 22.17522387431739 3.6095300675747466 21.659976976358273 0 0 -1
893 1 22.172975084107133 3.6106724048800016 3.610672404879997 0 0 0
866 1 23.992318084975103 1.8075880713345107 0.005119150112296108 0 0 0
868 1 23.992318084975118 0.005119150112298131 1.8075880713345132 0 0 0
870 1 23.987779384722625 1.80772951113596 3.61038088112985 0 0 0
892 1 23.98777938472263 3.6103808811298532 1.807729511135964 0 0 0
1009 1 25.81407730555876 0.009853189310198875 0.009853189310216724 0 0 0
1011 1 25.811279136376868 1.8128164410779892 1.812816441077997 0 0 0
1013 1 25.8103569198613 0.014727889691471926 3.6106815041897713 0 0 0
1033 1 25.810356919861324 3.610681504189783 0.014727889691455463 0 0 0
1037 1 25.81074906191133 3.6077819970504126 3.607781997050397 0 0 0
1010 1 27.64445046481728 1.8166100680546662 0.027743310969556987 0 0 0
1012 1 27.644450464817265 0.027743310969564585 1.8166100680546513 0 0 0
1014 1 27.653895169696316 1.8169319316969335 3.6061827564681876 0 0 0
1036 1 27.653895169696316 3.606182756468186 1.8169319316969292 0 0 0
1153 1 29.48364351585731 0.032519164897779666 0.032519164897758045 0 0 0
1154 1 31.381502542669356 1.8215470359858483 0.031990546261175354 0 0 0
1155 1 29.52798253266277 1.8228025750059238 1.8228025750059258 0 0 0
1156 1 31.381502542669363 0.031990546261175395 1.8215470359858572 0 0 0
1157 1 29.503881900267153 0.0347453263167108 3.6077583469371945 0 0 0
1158 1 31.432153787617683 1.8185956408868587 3.6067645735389378 0 0 0
1177 1 29.503881900267146 3.607758346937196 0.03474532631671614 0 0 0
1180 1 31.432153787617686 3.6067645735389426 1.8185956408868584 0 0 0
1181 1 29.52871098961818 3.601701177652581 3.601701177652584 0 0 0
1297 1 33.20596106872573 0.001459489761692867 0.001459489761689578 0 0 0
1298 1 35.1124780951504 1.766383752002422 21.547029985499563 0 0 -1
1299 1 33.32076560054788 1.8020325563578339 1.8020325563578383 0 0 0
1300 1 35.11247809515041 21.54702998549957 1.7663837520024228 0 -1 0
1301 1 33.27224910098932 21.648172449297746 3.6158699344423595 0 -1 0
1302 1 35.15752460409716 1.768146754714318 3.652055340646533 0 0 0
1321 1 33.27224910098932 3.6158699344423595 21.648172449297746 0 0 -1
1324 1 35.15752460409717 3.6520553406465344 1.7681467547143188 0 0 0
1325 1 33.325010481023895 3.6226167776740836 3.622616777674082 0 0 0
1441 2 37.072950405668564 21.29520546292205 21.295205462922056 0 -1 -1
1442 2 39.117859701082494 1.642124521732404 21.253321819926906 0 0 -1
1443 2 37.11984131174923 1.6916036604660973 1.6916036604660964 0 0 0
1444 2 39.1178597010825 21.25332181992691 1.6421245217324085 0 -1 0
1445 2 37.108454609546094 21.347514489808454 3.6975137827769204 0 -1 0
1446 2 39.158820401683926 1.6836470305999638 3.73249961691962 0 0 0
1461 2 37.10845460954609 3.6975137827769218 21.347514489808457 0 0 -1
1464 2 39.15882040168393 3.7324996169196183 1.6836470305999651 0 0 0
1465 2 37.12081838655772 3.7247724771222033 3.7247724771221944 0 0 0
1541 2 40.899796340612575 21.087473434314056 21.087473434314052 0 -1 -1
1542 2 42.845672610386934 1.5296136818365478 21.059826593556014 0 0 -1
1543 2 41.101010247982124 1.6388973982299575 1.6388973982299588 0 0 0
1544 2 42.845672610386934 21.059826593556018 1.5296136818365476 0 -1 0
1545 2 41.070011671047 21.200733834332237 3.734506117615069 0 -1 0
1546 2 42.997132639330516 1.6397453622754314 3.7735609946305235 0 0 0
1561 2 41.070011671047006 3.734506117615067 21.200733834332233 0 0 -1
1564 2 42.99713263933051 3.7735609946305253 1.6397453622754294 0 0 0
1565 2 41.10445424372726 3.7721291112960005 3.772129111296006 0 0 0
1641 2 44.7033926158053 21.03898815275841 21.03898815275841 0 -1 -1
1642 2 46.351066939411496 1.7007133822742961 20.897054136686375 0 0 -1
1643 2 44.74049702611575 1.540428182528155 1.5404281825281587 0 0 0
1644 2 46.351066939411496 20.89705413668637 1.7007133822742984 0 -1 0
1645 2 44.46019689673725 20.89432836721995 3.8567683281751326 0 -1 0
1646 2 46.28475000418691 1.4694927375843614 3.921800024550435 0 0 0
1661 2 44.46019689673725 3.8567683281751393 20.894328367219945 0 0 -1
1664 2 46.28475000418691 3.9218000245504343 1.4694927375843572 0 0 0
1665 2 44.76782034587613 3.8554504008026766 3.85545040080268 0 0 0
1741 2 48.08551399328252 21.08590417354338 21.085904173543376 0 -1 -1
1743 2 47.9992237410285 1.6059429703767851 1.6059429703767885 0 0 0
1745 2 48.21424274107368 21.035795613659023 3.84388609578627 0 -1 0
1761 2 48.21424274107368 3.84388609578627 21.035795613659023 0 0 -1
1765 2 47.993307650773424 3.7956552017907454 3.7956552017907477 0 0 0
1742 2 49.98784931832939 1.5997682679770262 21.15775856206753 0 0 -1
1744 2 49.98784931832939 21.157758562067535 1.5997682679770269 0 -1 0
1746 2 49.94735959687147 1.6489626126651444 3.7527329012240442 0 0 0
1764 2 49.947359596871465 3.7527329012240442 1.6489626126651453 0 0 0
1841 2 51.944774213781834 21.146536068413425 21.146536068413432 0 -1 -1
1843 2 51.91083228384753 1.6392877098583496 1.6392877098583467 0 0 0
1845 2 51.9180688412806 21.189949126980846 3.7492665291743554 0 -1 0
1861 2 51.91806884128061 3.749266529174355 21.189949126980842 0 0 -1
1865 2 51.90870823831922 3.7676901458654073 3.7676901458654086 0 0 0
1842 2 53.85562220608942 1.6266763511883209 21.17410643137416 0 0 -1
1844 2 53.85562220608942 21.174106431374163 1.6266763511883129 0 -1 0
1846 2 53.85578652242489 1.647070805877122 3.7568636894912535 0 0 0
1864 2 53.85578652242488 3.7568636894912504 1.6470708058771184 0 0 0
1941 2 55.77068411816959 21.13897175504061 21.13897175504061 0 -1 -1
1943 2 55.78697853394822 1.630167953014597 1.6301679530145994 0 0 0
1945 2 55.77888577727314 21.166128187514413 3.7600882269412867 0 -1 0
1961 2 55.77888577727314 3.7600882269412916 21.16612818751441 0 0 -1
1965 2 55.78398900408754 3.7701669550879595 3.770166955087954 0 0 0
1942 2 57.67840926257096 1.617450530599762 21.136449387412053 0 0 -1
1944 2 57.678409262570966 21.13644938741205 1.6174505305997635 0 -1 0
1946 2 57.69106221447253 1.6312255978423669 3.774051242792438 0 0 0
1964 2 57.69106221447253 3.7740512427924435 1.6312255978423684 0 0 0
2041 2 59.53783046307958 21.10415601747088 21.104156017470878 0 -1 -1
2043 2 59.57588888088921 1.616100854895973 1.6161008548959725 0 0 0
2045 2 59.54877209296714 21.111830377230962 3.7839834128270193 0 -1 0
2061 2 59.54877209296715 3.783983412827024 21.111830377230955 0 0 -1
2065 2 59.56699202312626 3.790269939919586 3.7902699399195856 0 0 0
2042 2 61.4084139873249 1.6106402094959573 21.0877709150993 0 0 -1
2044 2 61.4084139873249 21.087770915099306 1.6106402094959598 0 -1 0
2046 2 61.42274982019624 1.6124142878741095 3.7983405406047477 0 0 0
2064 2 61.422749820196245 3.7983405406047464 1.6124142878741101 0 0 0
2141 2 63.26691197138883 21.100577561020383 21.100577561020383 0 -1 -1
2143 2 63.259097193133414 1.6100265720123093 1.6100265720123066 0 0 0
2145 2 63.246510588224474 21.07570758231872 3.8039195911662285 0 -1 0
2161 2 63.246510588224474 3.8039195911662222 21.07570758231872 0 0 -1
2165 2 63.259631700598035 3.803725977682498 3.8037259776825034 0 0 0
2142 2 65.11063306858469 1.6281249968094003 21.09068947074101 0 0 -1
2144 2 65.11063306858468 21.09068947074101 1.6281249968094018 0 -1 0
2146 2 65.09575914770048 1.6081798067426256 3.806123082463588 0 0 0
2164 2 65.09575914770049 3.8061230824635865 1.608179806742621 0 0 0
2241 2 66.97581798758115 21.115534207977223 21.11553420797723 0 -1 -1
2243 2 66.9565147128389 1.6258685889133289 1.6258685889133322 0 0 0
2245 2 66.98338462102492 21.112540773241737 3.7993187157071513 0 -1 0
2261 2 66.98338462102492 3.799318715707158 21.11254077324174 0 0 -1
2265 2 66.95398069595103 3.793010721672037 3.793010721672041 0 0 0
2242 2 68.8536004344143 1.6230364656440095 21.13352670200371 0 0 -1
2244 2 68.85360043441432 21.133526702003707 1.6230364656440068 0 -1 0
2246 2 68.84769050801363 1.6362076718333054 3.7881815174780678 0 0 0
2264 2 68.84769050801363 3.7881815174780598 1.6362076718333032 0 0 0
2341 2 70.72250560321095 21.127469443141933 21.127469443141933 0 -1 -1
2342 2 72.5569868247833 1.6232371409749295 21.138380440611787 0 0 -1
2343 2 70.72516133171327 1.6308935222279761 1.6308935222279741 0 0 0
2344 2 72.5569868247833 21.138380440611794 1.6232371409749293 0 -1 0
2345 2 70.72798773322337 21.14331380934879 3.780176554303144 0 -1 0
2346 2 72.56500293712165 1.635235929698972 3.781772771181518 0 0 0
2361 2 70.72798773322337 3.7801765543031447 21.14331380934879 0 0 -1
2364 2 72.56500293712165 3.781772771181518 1.6352359296989742 0 0 0
2365 2 70.72780088870215 3.7892517205718486 3.789251720571844 0 0 0
26 1 2.207966087705252 5.413823533234334 21.659076252943134 0 0 -1
27 1 0.40944968749921773 5.414123613903284 1.8044193290265722 0 0 0
30 1 2.207934584817233 5.414627609737608 3.6089176398856333 0 0 0
49 1 0.410163360257913 7.219505920766221 21.659386766093903 0 0 -1
52 1 2.20773995972632 7.219683753073078 1.8034642446698157 0 0 0
53 1 0.4101205314012904 7.219113948981274 3.6089337158579147 0 0 0
171 1 4.007556318468498 5.413384713992805 1.8036531615956362 0 0 0
193 1 4.007084961315952 7.219716949054583 21.659694480007474 0 0 -1
197 1 4.007059288989769 7.2193323385759856 3.6103687575855616 0 0 0
170 1 5.822260973013898 5.413879200792085 0.0010670332974778843 0 0 0
174 1 5.822566983001037 5.414615766833515 3.609335368900157 0 0 0
196 1 5.822541652391591 7.219308236092968 1.80561213337561 0 0 0
315 1 7.638964186393552 5.414223379080686 1.804639729654231 0 0 0
337 1 7.639675766663773 7.218711001057838 0.00010031124813636438 0 0 0
341 1 7.639167690139758 7.2186721960719655 3.6099234585816076 0 0 0
314 1 9.456680619615875 5.415380226930302 21.658552338676 0 0 -1
318 1 9.456908638968455 5.414957961526424 3.60982800203019 0 0 0
340 1 9.45657093491859 7.21958001388252 1.8038043601690972 0 0 0
458 1 13.094897487209899 5.415234027514993 0.00021925229838970495 0 0 0
459 1 11.275866092536045 5.415064452141508 1.8049959675061906 0 0 0
462 1 13.095298714362713 5.415364069611099 3.6102214135382016 0 0 0
481 1 11.275654465506674 7.219230540713594 21.65983398528062 0 0 -1
484 1 13.095111068303643 7.219833718634467 1.8049229273659422 0 0 0
485 1 11.275618101622861 7.220343720201834 3.609353865567282 0 0 0
602 1 16.729827329922642 5.415339922467905 21.659630079780182 0 0 -1
603 1 14.911702614670503 5.4166068248771495 1.8046706105149166 0 0 0
606 1 16.729973871567417 5.415582411761651 3.6104125176041317 0 0 0
625 1 14.912470918431492 7.220410059053593 21.65997988216285 0 0 -1
628 1 16.730692905978618 7.221111920769188 1.8050472078829929 0 0 0
629 1 14.912499526512741 7.2208337065251955 3.6096345577107614 0 0 0
746 1 20.363131733240568 5.415620823461956 21.658919662596922 0 0 -1
747 1 18.547637304600897 5.41606642180783 1.8049508617949546 0 0 0
750 1 20.36151827839271 5.416609060265227 3.611435684512036 0 0 0
769 1 18.54868892231661 7.221713253792982 21.65982550997303 0 0 -1
772 1 20.364477324847 7.222964139864678 1.8044514005474683 0 0 0
773 1 18.548024385036957 7.222345730427333 3.610490674573224 0 0 0
891 1 22.1752897927076 5.4157375767033225 1.805640845573265 0 0 0
913 1 22.179508134351078 7.219943073756419 0.0004732240172582772 0 0 0
917 1 22.179036331304605 7.220357271278633 3.6103054689938783 0 0 0
890 1 23.991968399661776 5.41387722444271 0.004052439910976286 0 0 0
894 1 23.990464701415927 5.411943342451432 3.6096852203830703 0 0 0
916 1 23.994839297641455 7.2152209895810415 1.8069306935077434 0 0 0
1035 1 25.809997692733962 5.404814439182367 1.80845742931426 0 0 0
1057 1 25.813097477140893 7.21021704988525 0.00177926352707658 0 0 0
1061 1 25.81172957772576 7.206202598888007 3.6097511446693624 0 0 0
1034 1 27.641748090045716 5.403573226392674 0.01650288284139299 0 0 0
1038 1 27.644261436051295 5.3949130997843096 3.605006660774043 0 0 0
1060 1 27.63229726694404 7.190555489536248 1.806098351857011 0 0 0
1178 1 31.36169320775464 5.397163927975159 0.02581669918869406 0 0 0
1179 1 29.50537249852272 5.387725581299885 1.8150425664356946 0 0 0
1182 1 31.385618304544348 5.392632389298054 3.60286304920091 0 0 0
1201 1 29.467905206675017 7.190495783232203 0.010206806959955017 0 0 0
1204 1 31.31521712415797 7.185043103569262 1.8107954963636048 0 0 0
1205 1 29.461238314157374 7.1774101019763 3.6032775413026417 0 0 0
1322 1 35.083093798302066 5.499995469616846 21.579326192435932 0 0 -1
1323 1 33.27630082153892 5.436609645562745 1.8076807810940398 0 0 0
1326 1 35.1180162291739 5.537763172713998 3.655130575786518 0 0 0
1345 1 33.15200839957733 7.230741441646096 0.013545512899907092 0 0 0
1348 1 35.045259712178236 7.380461275811725 1.8039961243151565 0 0 0
1349 1 33.16823284117242 7.239472632456098 3.6074796448731665 0 0 0
1462 2 39.105654363038745 5.798542249143267 21.276490777923957 0 0 -1
1463 2 37.10684951667798 5.72869521402139 1.7179692584555768 0 0 0
1466 2 39.1191964517002 5.820086761124858 3.771056856596459 0 0 0
1481 2 37.061929511714 7.764903999800168 21.340983795177277 0 0 -1
1484 2 39.06682291781338 7.888939103626227 1.7072530885707944 0 0 0
1485 2 37.06451299086055 7.783466386491672 3.7756780964573116 0 0 0
1562 2 42.639408139565056 6.07273005224759 21.00037507926133 0 0 -1
1563 2 41.07103040285167 5.871513261978931 1.6806509166526307 0 0 0
1566 2 42.87756508025063 5.992889001318598 3.8646513461481806 0 0 0
1581 2 40.643182618617224 8.168150546266196 21.03852489485815 0 0 -1
1584 2 42.521515690914235 8.28755513018531 1.560522625345076 0 0 0
1585 2 40.90346956043343 8.055185312669188 3.8688301377400753 0 0 0
1662 2 46.330042998579025 6.023766211889124 21.02341836341881 0 0 -1
1663 2 44.48460843026674 6.166116703673481 1.5399302303634097 0 0 0
1666 2 46.356923364097256 6.175367066276425 3.711715466670094 0 0 0
1681 2 44.493513092654275 8.238730602533806 21.127670177878432 0 0 -1
1684 2 46.3970161862771 8.275112382403274 1.6110041780835753 0 0 0
1685 2 44.43202926507398 8.340923060075136 3.7142074890132166 0 0 0
1763 2 48.20526854382752 6.027060983574492 1.5559697996156785 0 0 0
1781 2 48.245532162500936 8.15268640766319 21.094369206282906 0 0 -1
1785 2 48.3184007567728 8.22117641119657 3.7494372174418324 0 0 0
1762 2 50.11680474629659 5.970673631880211 21.097203166332555 0 0 -1
1766 2 49.98522609333227 5.903437645558034 3.7975890358885986 0 0 0
1784 2 50.155427042784844 8.121342825551006 1.581437487640868 0 0 0
1863 2 51.91876577753364 5.877373181685657 1.6563697957793477 0 0 0
1881 2 52.04627211321609 8.093163749257752 21.10172840047123 0 0 -1
1885 2 51.94813896635378 8.02686335444727 3.803172017712411 0 0 0
1862 2 53.856881335555315 5.887235919417599 21.179644359616116 0 0 -1
1866 2 53.85571151547506 5.893579931604293 3.7780724544970274 0 0 0
1884 2 53.854378306438846 8.01985849460242 1.651016612374784 0 0 0
1963 2 55.77631802240594 5.902522570963993 1.6445583556508159 0 0 0
1981 2 55.7486923479609 8.059376800211552 21.151147027236853 0 0 -1
1985 2 55.75798329162534 8.055099866109744 3.7930757112319267 0 0 0
1962 2 57.65864156968194 5.931714514300841 21.13643524598214 0 0 -1
1966 2 57.67213447939414 5.934034737364855 3.788444166506601 0 0 0
1984 2 57.63868044784581 8.089091255766926 1.633712268575189 0 0 0
2063 2 59.54333333970912 5.9570481950464815 1.6245475556049527 0 0 0
2081 2 59.48385517034615 8.13380464703944 21.107827209626567 0 0 -1
2085 2 59.50420914951858 8.133037522416037 3.7967587863700936 0 0 0
2062 2 61.380050654480584 5.978216310389369 21.090635033406937 0 0 -1
2066 2 61.399936052382955 5.983290177417907 3.79688427316773 0 0 0
2084 2 61.3612478984657 8.162914534753575 1.613702241975633 0 0 0
2163 2 63.24495911597758 5.997084724628708 1.6065317560801653 0 0 0
2181 2 63.248885947595916 8.145342344071393 21.116867139635854 0 0 -1
2185 2 63.24590217483856 8.162618348532282 3.7799600775560886 0 0 0
2162 2 65.11914923623381 5.97645079193154 21.09873066074295 0 0 -1
2166 2 65.10805725345355 5.983039098116405 3.7879020319503813 0 0 0
2184 2 65.1274093709845 8.147103004213053 1.6165194231770716 0 0 0
2263 2 66.98207713598337 5.964361879679442 1.621299544884647 0 0 0
2281 2 67.01022377327644 8.124242374543279 21.111339775958196 0 0 -1
2285 2 67.00202274407593 8.12846867946169 3.7893734897024847 0 0 0
2262 2 68.87417629108784 5.953241387109813 21.12469875312436 0 0 -1
2266 2 68.85595107741162 5.946523065815956 3.7953184779440297 0 0 0
2284 2 68.88385671646094 8.106486562962825 1.6264822101502854 0 0 0
2362 2 72.55568137883779 5.9334472303484915 21.139531795120714 0 0 -1
2363 2 70.72967891805433 5.937723233413015 1.6366323072054538 0 0 0
2366 2 72.56767676563187 5.937451740151791 3.792408914583649 0 0 0
2381 2 70.74578455160268 8.105145568014569 21.12226705455123 0 0 -1
2384 2 72.55744361035286 8.092703773497805 1.6338182911373662 0 0 0
2385 2 70.73777145252024 8.094774406039368 3.79793371690735 0 0 0
50 1 2.207955733619698 9.024707634418538 21.657919103966535 0 0 -1
51 1 0.410617789502535 9.02437882835959 1.8045629350039747 0 0 0
54 1 2.208394121598959 9.024437663688568 3.609154018377613 0 0 0
73 1 0.4111917286476078 10.829872777185372 21.65963690667938 0 0 -1
74 1 2.2083000088464315 12.634079193681064 21.658848351457173 0 0 -1
75 1 0.40957140014866233 12.634466131011715 1.8043635317698576 0 0 0
76 1 2.2080943382090434 10.82946295574029 1.8031616727801745 0 0 0
77 1 0.4103095312322632 10.829616052764488 3.6091619986187093 0 0 0
78 1 2.208652001802423 12.633697820890292 3.6095654084416187 0 0 0
195 1 4.0066669507584125 9.024665934589992 1.80443825357682 0 0 0
217 1 4.005999826008911 10.829627319630879 21.659399098130926 0 0 -1
219 1 4.007548185105482 12.63434136544062 1.803176869191522 0 0 0
221 1 4.007335396792885 10.829071222831162 3.6096466891651797 0 0 0
194 1 5.822227274857146 9.024256030330788 0.0004770877472939848 0 0 0
198 1 5.821864894241002 9.024752202590848 3.609567270684555 0 0 0
218 1 5.822296634854226 12.634692723375288 21.65960200393973 0 0 -1
220 1 5.822032587919375 10.82982338871045 1.8056829437792719 0 0 0
222 1 5.821880865666358 12.634204210604869 3.609516782841955 0 0 0
339 1 7.639273370505511 9.023830366952602 1.8052624651722624 0 0 0
361 1 7.638186495001421 10.82933606635811 21.659827613653853 0 0 -1
363 1 7.638828755343126 12.634711177743547 1.805233102827609 0 0 0
365 1 7.638706409894055 10.829658130518247 3.610102234672012 0 0 0
338 1 9.45698289446103 9.023506726785051 21.65955397135583 0 0 -1
342 1 9.456278876543761 9.024366059377662 3.6093112524079065 0 0 0
362 1 9.456806969844132 12.634633022245753 21.659491770466513 0 0 -1
364 1 9.456463984402872 10.82849497095873 1.8051003178141296 0 0 0
366 1 9.456831277645307 12.63363028279849 3.610362963321889 0 0 0
482 1 13.094310403635584 9.02447961961162 0.000735161240780026 0 0 0
483 1 11.275423777760855 9.024189174713266 1.804925501419043 0 0 0
486 1 13.094248084441226 9.025079239884882 3.6106925218519605 0 0 0
505 1 11.274841140804272 10.829557869206145 21.659721145064722 0 0 -1
506 1 13.095006979259022 12.635615315728502 0.00039624505430069235 0 0 0
507 1 11.275226135693242 12.634214879233854 1.805853149833529 0 0 0
508 1 13.094195617878022 10.830152099295058 1.805803092376147 0 0 0
509 1 11.275345513842456 10.829798397078724 3.6094079069159433 0 0 0
510 1 13.092994882288437 12.635650974736372 3.608932855811457 0 0 0
626 1 16.731425216337836 9.026080592105203 21.659344601487064 0 0 -1
627 1 14.9118793313643 9.025784875247439 1.805170009491816 0 0 0
630 1 16.73218481973095 9.026672334163019 3.6098575659437757 0 0 0
649 1 14.912203903710848 10.830260664063672 21.65949901587237 0 0 -1
650 1 16.732189794516845 12.635485866764487 4.891372837079189e-05 0 0 0
651 1 14.911206081800824 12.635899484419564 1.804810148070391 0 0 0
652 1 16.731786048130136 10.831515297282502 1.8043434463478947 0 0 0
653 1 14.91238218910057 10.8298144768747 3.610768786184137 0 0 0
654 1 16.73066301605871 12.635719702262145 3.6095885009638087 0 0 0
770 1 20.367600000050697 9.027684825051859 0.0004700968268562917 0 0 0
771 1 18.549736428955157 9.0272033517434 1.8051661329854953 0 0 0
774 1 20.36732551115162 9.02731219913151 3.6083997472805525 0 0 0
793 1 18.54994224025146 10.832081956704743 0.000657577004737675 0 0 0
794 1 20.37084884539958 12.635221833740497 0.00021754113201666314 0 0 0
795 1 18.55084997206376 12.63583849338115 1.8038377572993944 0 0 0
796 1 20.37006972059573 10.830525458816801 1.8039817142733898 0 0 0
797 1 18.550453150153388 10.831579972084022 3.60825574345639 0 0 0
798 1 20.371869883297126 12.635709150075147 3.6088456188064044 0 0 0
915 1 22.184165014434253 9.02503219687383 1.8048403057675992 0 0 0
937 1 22.18820802117921 10.830492845615066 3.5952747044376565e-05 0 0 0
939 1 22.19481529441915 12.636285872554797 1.8050476475667643 0 0 0
941 1 22.190176867399448 10.830601404388577 3.6106754069398788 0 0 0
914 1 24.00032853039543 9.021340030604478 21.659708937227755 0 0 -1
918 1 24.00226763028189 9.019786734170262 3.612249586515903 0 0 0
938 1 24.007520122580868 12.634383248719669 21.655932096203895 0 0 -1
940 1 24.008735811752015 10.826967159462196 1.8044131428941632 0 0 0
942 1 24.01353030910672 12.634821926090659 3.6114732348111116 0 0 0
1059 1 25.81568074095892 9.01010293842947 1.8025026972634601 0 0 0
1081 1 25.81653869179583 10.820169740886875 21.65085292052141 0 0 -1
1083 1 25.820180562273332 12.630659422537986 1.801214884462231 0 0 0
1085 1 25.818118206619427 10.819830073892339 3.6139729129450213 0 0 0
1058 1 27.62675589546245 9.00057414512616 21.65051313409796 0 0 -1
1062 1 27.621238660698438 8.994868825015619 3.6127280172668454 0 0 0
1082 1 27.616443393199095 12.626051132935435 21.63638823839786 0 0 -1
1084 1 27.61602025957531 10.807009369235745 1.7971381345117536 0 0 0
1086 1 27.61320507476495 12.626253382436749 3.618666828432919 0 0 0
1202 1 31.25075419847508 8.99549878081982 3.879457942339466e-05 0 0 0
1203 1 29.42434712624921 8.978527867641198 1.799249692293267 0 0 0
1206 1 31.2229757605137 8.982112824313706 3.603704302278893 0 0 0
1225 1 29.413218250222045 10.802481104042043 21.63226624003543 0 0 -1
1226 1 31.15836536010505 12.62502408322316 21.617525143464817 0 0 -1
1227 1 29.381485232442152 12.620949264474396 1.7914006272017586 0 0 0
1228 1 31.15865972474822 10.790784143705832 1.793831345333825 0 0 0
1229 1 29.395505577597977 10.795409819119701 3.6183342751299845 0 0 0
1230 1 31.12124618255103 12.622941483258034 3.6246166989113386 0 0 0
1346 1 34.88849791183416 9.145695606315495 0.032577299685536784 0 0 0
1347 1 33.051421551065516 9.035815102386621 1.8148932709357992 0 0 0
1350 1 34.90679337485312 9.187671839958066 3.613231415317377 0 0 0
1369 1 32.972579299063035 10.840880983313847 0.008499960623055334 0 0 0
1370 1 34.76046710198415 12.67344539595974 0.12161794784515885 0 0 0
1371 1 32.839483833922564 12.631278787423835 1.800635862961247 0 0 0
1372 1 34.7606943978959 10.953940533168334 1.839992190743664 0 0 0
1373 1 32.915649818012284 10.830083784190428 3.5993491795781503 0 0 0
1374 1 34.62453359250643 12.689741491995061 3.5633205880181364 0 0 0
1482 2 38.567477655657775 10.207030644609238 21.038951076436135 0 0 -1
1483 2 37.0261301442109 9.826773092481057 1.7439714434333986 0 0 0
1486 2 38.877512828064994 10.054229950919865 3.880643376369388 0 0 0
1501 2 37.02828692430314 12.57332454624862 20.654789910432235 0 0 -1
1504 2 38.36286992300968 12.368357267067552 1.5430073489046914 0 0 0
1505 2 37.01707037818192 12.140898952971906 4.040598549035234 0 0 0
1582 2 42.51682960231467 10.339094412467215 21.170258915019573 0 0 -1
1583 2 40.4758909841039 10.348855486557541 1.5631387183227772 0 0 0
1586 2 42.41616736537428 10.44308201182616 3.7192661965298774 0 0 0
1601 2 40.478944358867466 12.386497974650407 21.180033551597326 0 0 -1
1604 2 42.40080159450626 12.492960105426205 1.6669923570343166 0 0 0
1605 2 40.320597208922386 12.509975578744545 3.7310398585397224 0 0 0
1682 2 46.40713033052775 10.35876987359082 21.190062803480682 0 0 -1
1683 2 44.438634900529834 10.412658142234326 1.6424683791519388 0 0 0
1686 2 46.41835675809879 10.401882926277462 3.7346891853560953 0 0 0
1701 2 44.43468373657397 12.469576206371707 21.24260022042915 0 0 -1
1704 2 46.42542387894224 12.48177749400944 1.6538908213502077 0 0 0
1705 2 44.43088281611484 12.507778045957515 3.7369261871341894 0 0 0
1783 2 48.35667565101068 10.346284255289268 1.629046793195255 0 0 0
1801 2 48.351999384658434 12.45630502393637 21.17642974665561 0 0 -1
1805 2 48.37847763499424 12.480526907408679 3.760747103337529 0 0 0
1782 2 50.184922870225975 10.265431669895072 21.095628934196576 0 0 -1
1786 2 50.25537653225268 10.313757670372565 3.7679193020279884 0 0 0
1804 2 50.28260353835865 12.456429735582432 1.624525552013207 0 0 0
1883 2 52.07900006906616 10.24223354941056 1.5867236261684903 0 0 0
1901 2 52.07523026191456 12.418919762325274 21.071994661064064 0 0 -1
1905 2 52.142945831794 12.449830524129784 3.790796939464768 0 0 0
1882 2 53.931896322977956 10.25033517840239 21.081596262649736 0 0 -1
1886 2 53.858270301792345 10.185519037574702 3.8137808725841955 0 0 0
1904 2 53.93536820528238 12.41582407565559 1.5830004056527016 0 0 0
1983 2 55.725634225331646 10.210704904762606 1.6415671053619298 0 0 0
2001 2 55.73001634721356 12.471824275773521 21.038355836200914 0 0 -1
2005 2 55.68845300836205 12.403430281074872 3.8312170247608113 0 0 0
1982 2 57.571211280012726 10.27698347775248 21.10711744094508 0 0 -1
1986 2 57.58929180374696 10.263917254032227 3.806065682978285 0 0 0
2004 2 57.522953404205886 12.45006405119463 1.6199597256787535 0 0 0
2083 2 59.4458614618634 10.309319995039674 1.619185172726779 0 0 0
2101 2 59.450227057163545 12.45121504341315 21.13768271090354 0 0 -1
2105 2 59.428685036299825 12.464904647884794 3.7759699507327973 0 0 0
2082 2 61.35623425313804 10.302502917260538 21.13325344186109 0 0 -1
2086 2 61.3462688759087 10.320768188297674 3.7753996060710606 0 0 0
2104 2 61.34299991989722 12.461057986046157 1.630506442879312 0 0 0
2183 2 63.248913809185545 10.315374711304184 1.6253159808465831 0 0 0
2201 2 63.25153980663283 12.453530838995649 21.14323267526124 0 0 -1