LAMMPS Description

2000 atoms
1 atom types

0.0 72.2 xlo xhi
0.0 18.05 ylo yhi
0.0 18.05 zlo zhi

Masses

1 63.55

Atoms # atomic

1 1 0.003264491910924796 0.0005229426569344363 0.0013075902492032088
2 1 1.8073700257797793 1.8049874024827428 18.04765011037265
3 1 0.0003196045088067178 1.8017444261641342 1.8047074784034656
4 1 1.8061782969998665 18.049758531348154 1.8015806390234603
5 1 0.0010254896937921172 0.000936213496866991 3.606954026590366
6 1 1.806882818045934 1.807327017852483 3.6111223303663116
7 1 0.00048107880057966974 1.8042662257935012 5.418418496251438
8 1 1.8068028420231803 0.001481520150763504 5.412439657965858
9 1 0.0030767368252716154 0.001023712630871372 7.218234898266402
10 1 1.8045225411955221 1.806131827625052 7.223115529147998
11 1 0.0002985125418946612 1.8058298877692391 9.021578651152918
12 1 1.8020888033010072 0.0015909160813512046 9.023951241064836
13 1 0.0011732393664667798 18.048990295904662 10.833162102971636
14 1 1.8025260942768773 1.8074393307137555 10.829241214183616
15 1 0.002780274267606789 1.8037779994084806 12.635008429660557
16 1 1.8022559972298922 18.04959600474405 12.633339926997465
17 1 0.0001367398884861263 18.046426398282836 14.439390475199904
18 1 1.8068304730802318 1.8050283428172507 14.442924956160883
19 1 0.0026701713225373964 1.8037075965842106 16.24395865683921
20 1 1.805278795056501 18.04990575764631 16.241654630665735
21 1 0.0021636212966329917 3.609507875072747 18.047337434053144
22 1 1.8069903666833647 5.413363420721844 18.047418312000204
23 1 0.0005467641382939942 5.416728152657129 1.8078214734890414
24 1 1.8055617497575376 3.6100050866213964 1.8085060321000686
25 1 0.002819045144818214 3.609249618193571 3.6077617506033137
26 1 1.8051155747358674 5.416379001896222 3.6069184335889157
27 1 0.0005267334902449858 5.41805384780238 5.413699282298908
28 1 1.8068482605586358 3.6114077358025103 5.417871978284618
29 1 0.0007097520389230536 3.606988665816974 7.218518212345654
30 1 1.8070133842318166 5.412202303600089 7.219819636951363
31 1 0.0002185194441196261 5.411904659032575 9.026472609395507
32 1 1.8046012690433835 3.6097547305525164 9.02852015237923
33 1 0.0020062700644221157 3.61084557643884 10.832762136352203
34 1 1.8062265665583845 5.418227457993528 10.830153582968924
35 1 0.00011396721019357388 5.415305797892424 12.638418494968736
36 1 1.8063892922227842 3.6072509192160043 12.636309683410447
37 1 0.0005689100734726977 3.6072226484879693 14.43808522573775
38 1 1.8047938252747673 5.4147234756189 14.443485900431904
39 1 0.0008851639282140658 5.414326211722152 16.241654300030167
40 1 1.8066036990096088 3.609985566232866 16.242088145498826
41 1 0.001123019339726541 7.22095821179756 0.003282343170017415
42 1 1.8024637559378072 9.026367687357894 18.04935827791465
43 1 2.2424858887240813e-05 9.02560387371359 1.801573695964353
44 1 1.8047407820592514 7.220147780749083 1.801584619154756
45 1 0.0016457382670447293 7.219480225193153 3.6070978174645196
46 1 1.8070554296749841 9.022885071394205 3.608203681310663
47 1 0.001776294501720984 9.022281720582956 5.413486109326732
48 1 1.8021175052337948 7.219049749655672 5.413344474207031
49 1 0.003103747035235072 7.220612443438526 7.218898609921351
50 1 1.8032749763722091 9.024515589828503 7.222919130571698
51 1 0.0009830850718192555 9.027920922354786 9.02689899820891
52 1 1.8059453395542373 7.2190403397194665 9.028333036379806
53 1 3.360065003392916e-05 7.2199619895523925 10.833345532875388
54 1 1.804176294427608 9.021507041631557 10.830354521216382
55 1 0.0021071015529389027 9.02300998047174 12.633730701257544
56 1 1.8054253342099482 7.219784261984778 12.631498367404225
57 1 0.0006999899861843928 7.216968503680805 14.438028021605632
58 1 1.80494533093068 9.024909638350369 14.443495527074015
59 1 0.0018070283179131505 9.024256107660609 16.24204337205457
60 1 1.8063473521226372 7.222537230885585 16.24640807792291
61 1 0.0004867570192492972 10.829171696116546 0.0033017876323952434
62 1 1.8041347529174585 12.635486132332224 18.046558048427382
63 1 0.001193874688028593 12.635910245049063 1.808409694098387
64 1 1.8064879968093284 10.828916217043776 1.8080425858219755
65 1 6.352594578919743e-05 10.82855396352143 3.6129818730153116
66 1 1.8045356287408938 12.638153069878097 3.608375235840477
67 1 0.0004775874094120179 12.637803464048215 5.413540515523068
68 1 1.80422489499016 10.83062077616055 5.412039466844673
69 1 0.00029926333946750155 10.830024413628168 7.223485079433318
70 1 1.804496259655415 12.63350293910803 7.223116486072808
71 1 0.002937597632515928 12.633252333651036 9.025126748681613
72 1 1.8057229441984288 10.832862709633893 9.026262717443647
73 1 0.001696687357844689 10.829764787928793 10.833082875424358
74 1 1.8045945477976493 12.635376016496885 10.826790173065492
75 1 0.003303236167900586 12.63417919335768 12.634533259478681
76 1 1.8024610521137454 10.829931026998528 12.632566146289063
77 1 0.003094928535248994 10.830079499792019 14.441993305240128
78 1 1.8037163051068577 12.637328071075295 14.442595559188756
79 1 0.001045851948163222 12.63765340383691 16.246758086847688
80 1 1.8046550606381282 10.829660137767243 16.248195841564726
81 1 0.0014949443642777824 14.440563374947697 0.0032416849022234833
82 1 1.8019086302632874 16.244688446933225 0.0011537495005463315
83 1 0.0003786734912700679 16.244679623757516 1.8082048853562251
84 1 1.8026003647698916 14.43843978530491 1.8049083760134494
85 1 0.0027153437862518434 14.437934165162758 3.6091588082879706
86 1 1.8028753323176876 16.247192467278015 3.6115555246350657
87 1 0.00013770827388157592 16.243363631644957 5.411784288795459
88 1 1.8048839843349864 14.436980782704978 5.413021255948962
89 1 0.0005981346884794831 14.442116207819303 7.217332992291666
90 1 1.8049117831758463 16.244883565655787 7.216148189839231
91 1 0.0002942676157805466 16.24429462839876 9.022151073524423
92 1 1.806735195737846 14.438082034901266 9.027115176411648
93 1 0.0029068025418219597 14.442525230396427 10.830249771586292
94 1 1.8024649232731602 16.24397009042624 10.82797695801988
95 1 4.534103812574287e-05 16.24517626115758 12.631674223373741
96 1 1.8027238632476117 14.440101217788182 12.637492435979675
97 1 1.006715827548244e-05 14.44001123499739 14.436814581636707
98 1 1.8070965428277153 16.247611424386772 14.439982702201377
99 1 0.0003151490719838824 16.244564497881658 16.24822451190871
100 1 1.8043537160770868 14.44299663592239 16.243155604431365
101 1 3.6096667180886146 18.04746491921065 0.0018259149353926272
102 1 5.4172541550391 1.8070610076844333 18.048488514024974
103 1 3.610546461478155 1.8050670154994033 1.8084015310536874
104 1 5.414963539386594 18.049950548084272 1.8082131448365033
105 1 3.606761368494644 0.0013026203058101881 3.610077021708983
106 1 5.416246671086262 1.8056447483755431 3.607003190484513
107 1 3.60909020372456 1.8039894212279948 5.41824967612326
108 1 5.414601681197141 0.0017728443943340142 5.417807561922717
109 1 3.611199675503876 18.04737836980898 7.2214616829142315
110 1 5.414565005329173 1.8068355583156688 7.217188382581088
111 1 3.6067412814534556 1.8048459910060703 9.02443254617264
112 1 5.41473809346887 0.0005531741241324046 9.021649808596093
113 1 3.609952494898726 18.048907867445614 10.827210100926495
114 1 5.415652726682201 1.8052172404840359 10.833156111481136
115 1 3.612877832252122 1.805490344054522 12.637385198371836
116 1 5.414932373452056 18.0466623606812 12.633947250525269
117 1 3.612931669181416 0.0009785506548607337 14.4385766043421
118 1 5.414998678997494 1.8050146959113655 14.436609478458823
119 1 3.6127753236772917 1.8028045452677042 16.244117522012523
120 1 5.412934784246263 0.0027413095458768493 16.24384220243178
121 1 3.6093135203401547 3.612140343433753 18.04755897713624
122 1 5.416438745587079 5.418082187677066 18.049965296034006
123 1 3.610486211303746 5.416383582311271 1.80757625638954
124 1 5.416079664486777 3.6123169306610303 1.8069392292168978
125 1 3.612359437302538 3.609358594906357 3.607185712640221
126 1 5.4126745312296345 5.415859303188825 3.607676342244906
127 1 3.610605802300308 5.413476544988917 5.417547082834737
128 1 5.412859597643767 3.611378923431839 5.4173108142085855
129 1 3.606687817338562 3.611227952562127 7.219137178727603
130 1 5.415567342968674 5.412827194362529 7.222306292675208
131 1 3.6100935373215486 5.415519420528316 9.02168460863414
132 1 5.416613785539906 3.6079550335349087 9.027181410290723
133 1 3.609875957058485 3.60666311028515 10.830267723895226
134 1 5.4150390742257555 5.412183921310031 10.831599311645379
135 1 3.608955114253747 5.417075842336934 12.632728255759881
136 1 5.414263332792635 3.6126673490509424 12.637083002122168
137 1 3.610451719558967 3.6076036898123753 14.441897848122736
138 1 5.414158269885029 5.416593966608621 14.44313568484287
139 1 3.608369632040342 5.414547256800856 16.241845509385158
140 1 5.415585020104752 3.6118642146048936 16.247879731286062
141 1 3.6089767024544113 7.219445078110997 18.046838702521697
142 1 5.415182582018922 9.026192372321379 0.0034284160648277765
143 1 3.6095209765968086 9.024962118388833 1.8082846725664121
144 1 5.414514623930196 7.216474372493227 1.8052740599861143
145 1 3.6096679355611223 7.220151792225978 3.613240635755792
146 1 5.413668854762682 9.025207822644056 3.60693907495432
147 1 3.609684023758488 9.024478916650642 5.418499092240204
148 1 5.4148900765860795 7.221623348865041 5.412376605746768
149 1 3.608241481941814 7.222309679213796 7.218101118371076
150 1 5.413437144756071 9.023947224138379 7.222791811823991
151 1 3.6097079461248667 9.02317126848741 9.027753393282026
152 1 5.418132181206326 7.22056274930301 9.023996992943477
153 1 3.6067990438785906 7.219606044200137 10.828757421793814
154 1 5.413719874998881 9.022320840820722 10.827991901301523
155 1 3.608657173930411 9.027674022281884 12.633105352612574
156 1 5.416374177961152 7.222275961006656 12.632361198949578
157 1 3.6130486088958502 7.21951686413405 14.438409686808363
158 1 5.4170804022490175 9.022212156825315 14.439732427755153
159 1 3.6120002920218273 9.022872375481628 16.24330253405399
160 1 5.411773264352361 7.219530699878134 16.244665417767916
161 1 3.6070493489533098 10.828693936652197 0.0013253827671946346
162 1 5.415904381783533 12.636583378608142 0.0030477765133492454
163 1 3.6076860671997246 12.636863179688662 1.8027341226816767
164 1 5.414743889317578 10.830069050973242 1.8078610850680863
165 1 3.610667040021808 10.828052880203131 3.6125738210560403
166 1 5.414225888619194 12.632215495733167 3.61193466914891
167 1 3.6091013703838395 12.631882392749661 5.414159491858685
168 1 5.411831213879924 10.831148615653143 5.413883932612572
169 1 3.607573650858573 10.832322540872369 7.219982158469622
170 1 5.412538803603877 12.632826185054352 7.221201893548517
171 1 3.606373933085726 12.6349040591237 9.0247807184477
172 1 5.414461796081246 10.827693368020723 9.022677790410963
173 1 3.608760901238699 10.829005842106818 10.826511377288801
174 1 5.4134822377168454 12.638153402987198 10.830851498635063
175 1 3.612699266441279 12.635360503938358 12.63331129126859
176 1 5.415011132279477 10.830003074536851 12.631326116803955
177 1 3.609977819411249 10.829981363180007 14.443678545886282
178 1 5.414332473704046 12.634453282682012 14.436708922999065
179 1 3.6128543691262136 12.633785283457334 16.246173233434103
180 1 5.415046696873853 10.82846015241348 16.24792807870517
181 1 3.609470131644266 14.438830267658114 18.04681216856866
182 1 5.41828707221404 16.245356519631805 0.00020906614097241017
183 1 3.6087438179586613 16.243666836500736 1.8021984707744871
184 1 5.41521310751018 14.440434975697466 1.80875754446111
185 1 3.6093446501275457 14.439976832481822 3.606659154409846
186 1 5.4125089716128825 16.24219861878395 3.6104546799361734
187 1 3.6131355137977277 16.245129052342968 5.41305584301856
188 1 5.412246914322442 14.43863566304246 5.413200040951973
189 1 3.607185752646811 14.44009453904273 7.221682989164431
190 1 5.415925765217349 16.246851811472855 7.222799259193436
191 1 3.6091412475381066 16.24543998034792 9.028108071391463
192 1 5.417004490669458 14.441158573128623 9.027674478175133
193 1 3.611061332393 14.443194827655676 10.8307485385331
194 1 5.414746460229639 16.24229055916966 10.832185369002215
195 1 3.6112970133767575 16.24371000328548 12.637953831752988
196 1 5.416571144923047 14.442750430793748 12.635687471876826
197 1 3.607836598132772 14.438242334819295 14.441896231878562
198 1 5.414943705861764 16.248100185496767 14.44125603145319
199 1 3.6081937821586085 16.24290495644788 16.24693522465147
200 1 5.413579023081603 14.441865854444375 16.242535356698685
201 1 7.220071894596063 3.560661682208793e-05 18.046365726948306
202 1 9.025897900006244 1.801747364179094 18.048909650803573
203 1 7.2205501386842705 1.8026224343521928 1.8029026872287817
204 1 9.024308724473913 18.049606467838004 1.8078504264566746
205 1 7.2204774117940485 18.048950392434236 3.6066325247962454
206 1 9.024772437335661 1.804725441090094 3.606392858018301
207 1 7.216710654626288 1.8038144451884945 5.414185842475574
208 1 9.024377868540373 18.047447078854475 5.4129310762486975
209 1 7.219180756658259 18.047459204964674 7.2222407781034255
210 1 9.025373405511651 1.8050223395402043 7.223191091274727
211 1 7.2193488698994726 1.802444380530395 9.022737685208227
212 1 9.027310710378794 0.0013735321529454918 9.022920487348609
213 1 7.219368098494447 0.0035559973177713908 10.830643108960103
214 1 9.027206480855636 1.807679478573591 10.830232078523176
215 1 7.219363927736655 1.8023682693796828 12.63263412243351
216 1 9.025900316368434 0.0027707092831690877 12.633034400358992
217 1 7.22257038869661 0.000632654308241624 14.438309397074358
218 1 9.021557222797052 1.8047970858022022 14.439247317739682
219 1 7.216981955335642 1.8052231275805593 16.24356510344719
220 1 9.022266473757563 18.048726876373415 16.246741565470156
221 1 7.220708163805029 3.6102861593601574 18.046630253638465
222 1 9.02546899213333 5.417814075676961 18.04944432991409
223 1 7.2210480321007084 5.416641926435166 1.807915289637576
224 1 9.025556791155394 3.6130180444221507 1.8033605148518261
225 1 7.222964294432554 3.60862622870969 3.6111870979036915
226 1 9.02804242973666 5.413737403541738 3.6093322564708705
227 1 7.218401680628362 5.417532309609656 5.413171671882464
228 1 9.027411613509596 3.6123196035206435 5.414875741136994
229 1 7.220686279377081 3.6079388167504907 7.2223433690150785
230 1 9.024645201413993 5.4150890616434 7.216532165100509
231 1 7.220641391657198 5.415457382239069 9.021769019576169
232 1 9.02539518789213 3.6066035683443145 9.02460864809991
233 1 7.221895262514626 3.611760583680434 10.82885125655612
234 1 9.02637742645701 5.418129470224859 10.83042551505762
235 1 7.22292733706526 5.41525895441476 12.633444254793353
236 1 9.028542580575044 3.6104650043889213 12.635740323700299
237 1 7.219570210594858 3.6069284240950465 14.441780679182049
238 1 9.026186267853083 5.413691467353293 14.437055454892414
239 1 7.217647215082109 5.412866625306674 16.244447620880287
240 1 9.024050270384773 3.612549994355121 16.24627255087703
241 1 7.219249832596295 7.222031589372729 0.0018253990313196141
242 1 9.024368984435792 9.023888349730239 0.003085675445005766
243 1 7.220359687740052 9.023422479110458 1.8078408582409475
244 1 9.025314956172076 7.219682808706793 1.8016023585237102
245 1 7.217757217677197 7.2224011374745825 3.6099787096167457
246 1 9.025770675384678 9.024141044367196 3.606575304781263
247 1 7.22162196180762 9.022494065404016 5.413242100274119
248 1 9.023281212917666 7.219964746855648 5.41817996812803
249 1 7.22304767464626 7.2213843716158825 7.219342804808918
250 1 9.024027742756838 9.024024281595704 7.216846491959545
251 1 7.219373256564245 9.026025150160079 9.028476654781793
252 1 9.023062461420889 7.218179200263987 9.0227284656863
253 1 7.221942591466381 7.217498688792444 10.828471552821009
254 1 9.028126972172657 9.024247644032943 10.83124101856602
255 1 7.222064140711336 9.02634165365187 12.637318513623491
256 1 9.024490801090858 7.221008222533436 12.631775092420412
257 1 7.218663151772439 7.220836843236579 14.443254196115257
258 1 9.027098870947928 9.022120940624548 14.441519563232626
259 1 7.218289046080062 9.026474519620887 16.247905347946226
260 1 9.028084522710767 7.221021354655033 16.2451948073917
261 1 7.218475893171826 10.831830438827003 0.002300673540533728
262 1 9.02607783293849 12.638368381376514 18.04999298323174
263 1 7.220171041665966 12.635083505227273 1.80166976663863
264 1 9.025518025180434 10.828911493327007 1.8020698721789563
265 1 7.219888911175417 10.829044133219739 3.6130162421637046
266 1 9.02524436890499 12.63650625447103 3.6073269635123766
267 1 7.2214478704193015 12.633474407665329 5.41786960956134
268 1 9.026154222532718 10.827608590170136 5.413015337956032
269 1 7.219611446590306 10.829526920111357 7.216890696580455
270 1 9.027638394969006 12.636264374690974 7.221693638099718
271 1 7.222542941759421 12.634142476409986 9.026927026573768
272 1 9.025741646655044 10.82716089851362 9.025346342172075
273 1 7.219783958769124 10.82683240357415 10.830965640358828
274 1 9.02535317526087 12.63838359407297 10.829397934578529
275 1 7.217174815868878 12.63604049671032 12.633270636932146
276 1 9.024856158818295 10.826731077638128 12.635662207481385
277 1 7.219741699491198 10.829589644207086 14.436586542510145
278 1 9.025422030018378 12.634931891347446 14.443330299247712
279 1 7.219877268848795 12.63787881972602 16.24620457105764
280 1 9.028308806313886 10.83157220501015 16.24529067723218
281 1 7.22031170742779 14.43892149802234 18.0472094900399
282 1 9.025391958748134 16.24600995846866 18.046688563774033
283 1 7.220935140577207 16.246897464302844 1.8022623776909414
284 1 9.022870062947801 14.4408918639312 1.8076683444257806
285 1 7.221164205393502 14.437043024126236 3.608957872255076
286 1 9.022558315212631 16.244781735003563 3.607800360860398
287 1 7.222930447099973 16.246700629667867 5.415411098870062
288 1 9.025617695873928 14.440195027142456 5.418527243468741
289 1 7.216984481639395 14.44099726479357 7.22149547564772
290 1 9.022571318655666 16.24272644193512 7.219347681910273
291 1 7.22061323879309 16.24400183854818 9.027888570572646
292 1 9.023795028272975 14.443012643879747 9.024041110404976
293 1 7.221498336857641 14.438069104469117 10.831766056760198
294 1 9.024041848861186 16.24475036650737 10.826626330287693
295 1 7.221791683397012 16.24463713357852 12.638231382176242
296 1 9.024531381620054 14.43669348838661 12.634012562520958
297 1 7.221723405079704 14.44254691825592 14.438764229118991
298 1 9.023871233631928 16.241716881195188 14.43927444621864
299 1 7.220195017551893 16.244914535378694 16.241772468933036
300 1 9.024277470981415 14.4401636732567 16.241525749087778
301 1 10.831299278731187 0.0002567815730793209 0.002946439747145068
302 1 12.632228626365684 1.802899797923342 8.933374683514034e-05
303 1 10.831239137682799 1.8081034912828298 1.8053664299322476
304 1 12.636287706401813 0.0024992464023560717 1.8066511288725058
305 1 10.832565723525972 0.0018393507269081758 3.6115156797041066
306 1 12.634635723481455 1.8024320843631443 3.607930828735294
307 1 10.82719324135095 1.806262302892098 5.413934837935626
308 1 12.633775132702246 0.0015405210269091223 5.417585075057108
309 1 10.830206507901325 0.0022460716155435633 7.222353963780784
310 1 12.634037247425672 1.8048722001391235 7.2230827642193285
311 1 10.831222643224317 1.8021834135497823 9.023963920558355
312 1 12.634073515228348 0.0004655691499962418 9.02814212746414
313 1 10.832596816062988 18.04959281548405 10.831974458139497
314 1 12.631947347983715 1.8039362052889256 10.829209443335095
315 1 10.828015739867247 1.806739541956732 12.63710275018593
316 1 12.637114190891351 18.049013399830994 12.632567638717838
317 1 10.833297467914868 0.0010003660315829846 14.438967336230892
318 1 12.635929928584275 1.8044967221803294 14.443174735108103
319 1 10.827002353469846 1.806264917694244 16.246532374066522
320 1 12.632190744809376 18.048021943371815 16.244041173200994
321 1 10.831136835491513 3.606790026830881 18.04934911736266
322 1 12.633753684462963 5.41482830183694 0.0032323064513216492
323 1 10.827450225120648 5.41706750294093 1.8058411024087002
324 1 12.635370122428348 3.6124681730619583 1.807460330969
325 1 10.829326526356775 3.606583081773782 3.610275823451865
326 1 12.635080056920456 5.41497023443831 3.6130151096463354
327 1 10.831714550014137 5.415574386591327 5.412248069394784
328 1 12.637173983171053 3.608953513259886 5.412592809310386
329 1 10.829699442289149 3.6133471675494597 7.219209280804374
330 1 12.637590473104732 5.413481410357743 7.222013658660508
331 1 10.828893805514793 5.413613224598243 9.021972725072722
332 1 12.637334240247917 3.608376148921332 9.023001031672264
333 1 10.830121528380353 3.6068895680360504 10.828789870952562
334 1 12.63230790012976 5.415183990303454 10.83215228789666
335 1 10.828002996580723 5.4151719479967175 12.638070630091766
336 1 12.635863290598385 3.613181614435001 12.63416644148242
337 1 10.831060057300252 3.6101209790059654 14.4363862894011
338 1 12.636918077048058 5.414964222041723 14.437398826060738
339 1 10.82988606857164 5.415079498466715 16.241621543485003
340 1 12.637186656278747 3.609438614237033 16.242526570895038
341 1 10.831191042106278 7.217025412390294 0.001144494399721091
342 1 12.637174486558651 9.02587078621533 18.0473383234729
343 1 10.832893649551677 9.026670126613006 1.8043645045028767
344 1 12.63700883488178 7.220721670839491 1.802801153036179
345 1 10.82822194774952 7.22314042231139 3.610134357001427
346 1 12.63652332499291 9.02668049531653 3.6118466099002657
347 1 10.829248503706744 9.02375525278685 5.411892583135742
348 1 12.632590477254473 7.217743081780387 5.415978645637184
349 1 10.829618476805493 7.220702227780547 7.22332565984329
350 1 12.634969764495155 9.028375793948276 7.219311345513278
351 1 10.833592471196814 9.023757513791328 9.024868276367817
352 1 12.637399485616678 7.217648894788585 9.024631709594702
353 1 10.829928578174874 7.21980072469503 10.833590206406008
354 1 12.633838196482348 9.024418468312081 10.826745485652317
355 1 10.829517451368659 9.023868604471406 12.638206335471962
356 1 12.63728178986609 7.222346966728741 12.63499917631028
357 1 10.832085647049139 7.219194964269941 14.437322268014304
358 1 12.635203541180566 9.02393755131394 14.436944356304636
359 1 10.83321136698744 9.023767886261298 16.245891232038776
360 1 12.637406788297351 7.219319198829337 16.246757066404893
361 1 10.828487512056554 10.83015417531846 18.047593739665192
362 1 12.634516893125214 12.634998897743849 0.0033920075727251853
363 1 10.833135887767485 12.634775423552156 1.8059860944450388
364 1 12.63391661112364 10.829149351328503 1.8082442251192485
365 1 10.831565949766476 10.830632863366862 3.6129068140426086
366 1 12.63807525324007 12.635866953436981 3.611335708925323
367 1 10.830242472727353 12.631225011968132 5.41577170170855
368 1 12.638144845814317 10.831401483281438 5.415042705989279
369 1 10.829760899224494 10.832991247757738 7.221692610114941
370 1 12.634824301555431 12.63488843499272 7.2166285009384215
371 1 10.831202441289605 12.633055099248415 9.02265793232494
372 1 12.635999134269241 10.832613008306765 9.022605167352562
373 1 10.829737590920779 10.82804695115269 10.827167504899561
374 1 12.636005129863303 12.636215916854711 10.83364297322343
375 1 10.828327671798036 12.635877730242383 12.632053473839356
376 1 12.634119186479191 10.830298300147106 12.6319970427434
377 1 10.829638522426 10.833148896851924 14.438376147687638
378 1 12.635961598669171 12.636487275698475 14.43679253019133
379 1 10.828915887344342 12.635400058605436 16.248426607429494
380 1 12.633661991626363 10.82687919290361 16.245864267767487
381 1 10.827178189675413 14.438485496977341 0.0007397881647788221
382 1 12.6349048207661 16.246201112610628 18.047071687117107
383 1 10.828183135511237 16.242391388085032 1.806036972308214
384 1 12.635694485922354 14.441030914393826 1.8079687141550909
385 1 10.828107662691005 14.438855602590989 3.612250523935268
386 1 12.63540290517632 16.248400806285737 3.608214754045434
387 1 10.828785544500835 16.24624094031667 5.418059249838195
388 1 12.634988294827743 14.440020080410056 5.41164910833907
389 1 10.831306500855462 14.438309126800508 7.216987647300696
390 1 12.632967551320329 16.245127601225068 7.222731776346449
391 1 10.832714720601006 16.242857562469144 9.02521960992516
392 1 12.635502295177266 14.443499869568194 9.025040269737431
393 1 10.826748897558097 14.438925668473168 10.829697021623677
394 1 12.632660036535377 16.24264642878707 10.829614076503303
395 1 10.828985102588467 16.247939344469295 12.634163046948172
396 1 12.633220904559725 14.440295823539435 12.631780376167907
397 1 10.832493121710606 14.438320061090579 14.442007418328991
398 1 12.637450402116569 16.244219273248746 14.44227148386511
399 1 10.829302940788816 16.24624116155129 16.242039646232634
400 1 12.636983225404116 14.437663957635797 16.244412471745488
401 1 14.43841743764996 0.00010825954281371304 18.047044878989695
402 1 16.24539994937718 1.8020812196147629 18.04848530840499
403 1 14.439924090247626 1.8049755428256957 1.8015595669011055
404 1 16.24456704238805 18.049912362874696 1.8015556949881524
405 1 14.439918216821969 0.0018430679326075121 3.6067705317585013
406 1 16.242778237825526 1.804876415581081 3.61244956437253
407 1 14.441432760082076 1.8059941231530916 5.412314835529565
408 1 16.244738072015924 18.047722644339167 5.417433863872147
409 1 14.441114319719855 0.00022038785517844865 7.223266904710687
410 1 16.244997323948564 1.8044925056866126 7.223340468961858
411 1 14.439234146223074 1.8081704276978947 9.023378991851438
412 1 16.246258235252398 0.0017363851366707702 9.027348285748388
413 1 14.440059446658188 18.049848981632426 10.83329598511049
414 1 16.243089224605328 1.8070236713696637 10.832462815511285
415 1 14.438443174704329 1.806145574377734 12.63209809540406
416 1 16.245235136446325 18.04644938510847 12.635539335567618
417 1 14.439683900026333 0.0013913275518428116 14.442890621006718
418 1 16.246926097766714 1.8072706196408335 14.43806577206205
419 1 14.440438675841184 1.803055635048007 16.247602591531376
420 1 16.243855126416435 18.04708082353258 16.243754077528802
421 1 14.438270566660309 3.6123699664416935 0.0011830808434724147
422 1 16.24530008944393 5.411307331770856 0.0002495658305706864
423 1 14.440846764794038 5.411918904857901 1.8036499517604174
424 1 16.244024035451034 3.6076919951817725 1.807066153447875
425 1 14.437334299395834 3.609703820804406 3.6075355239283526
426 1 16.244374138928162 5.418337595815617 3.6101108737717866
427 1 14.437046749622764 5.414835698537178 5.413184478507311
428 1 16.245021286275218 3.6106359513352477 5.411422599549397
429 1 14.437657869994913 3.6096111454795254 7.218093733284369
430 1 16.24498458033103 5.414426541597434 7.216842712885149
431 1 14.440607146709825 5.4151349647390035 9.028463923587879
432 1 16.24591249630701 3.6094531254423523 9.021874485569944
433 1 14.442034368450411 3.611158465912448 10.832137444733876
434 1 16.24504008401614 5.416554536426517 10.826781985382215
435 1 14.44092362720393 5.415211475825288 12.631465603329705
436 1 16.244823553175088 3.6101689955365397 12.631549756916517
437 1 14.440563251720445 3.612274241279641 14.442400550811213
438 1 16.24464459085818 5.416051886156888 14.436702259548708
439 1 14.439835440209194 5.417777453174101 16.24672666639107
440 1 16.245866549050614 3.611207521515042 16.242162870041653
441 1 14.437917030074113 7.217847630033868 18.048037487124397
442 1 16.246833487631946 9.026352553662594 18.04758982773002
443 1 14.441188930810084 9.02237807677148 1.80676231068929
444 1 16.244307551692113 7.21714412512986 1.8067007950551215
445 1 14.440469574382474 7.221875962928305 3.6126606702074473
446 1 16.243582441493547 9.026581052720172 3.6128861340299783
447 1 14.44040437705646 9.024982759882214 5.4185855525233215
448 1 16.243462457498254 7.2205274181451 5.411798982850011
449 1 14.44054412249412 7.220785098349382 7.216846750437613
450 1 16.2448354678834 9.024101655607113 7.216716296604675
451 1 14.438634467037838 9.025978125695675 9.028092148698121
452 1 16.245002251468705 7.219970028525489 9.02834480432097
453 1 14.439493586622985 7.223520844809373 10.831107614029396
454 1 16.244468351252248 9.028291036423937 10.829976644818199
455 1 14.440086865029864 9.023114736133177 12.6318177328019
456 1 16.244580912965837 7.220472823840725 12.638066097289984
457 1 14.441636532545333 7.2203361181827574 14.43715348265399
458 1 16.245757475185652 9.023088260191555 14.437587070816086
459 1 14.439691033055352 9.024855080829653 16.24846314109542
460 1 16.243774828941486 7.219930433382044 16.248223443230366
461 1 14.44095320354407 10.830957858893834 0.003306626724843402
462 1 16.247423223294415 12.637665971721141 0.0010445116077460528
463 1 14.439117546427662 12.634331795218124 1.8021187178881193
464 1 16.24843829548202 10.828934309415217 1.8052270924609328
465 1 14.438352863600587 10.826988589467723 3.6099880436476104
466 1 16.24500843505737 12.635013833914668 3.6065753746499203
467 1 14.439976121724529 12.63558003598537 5.411807518622075
468 1 16.243527547983874 10.832522238898312 5.413211944216018
469 1 14.439854157238708 10.829983071694311 7.22341134507821
470 1 16.245012455332496 12.634992617472369 7.216610576726261
471 1 14.4430579209681 12.635062675928127 9.026506983270632
472 1 16.24325154232537 10.830854766724482 9.027760332702993
473 1 14.437964316244464 10.830860321282769 10.832479695301847
474 1 16.24665501750047 12.636682033434285 10.827310433965355
475 1 14.43860010708188 12.63392572441041 12.63799902086697
476 1 16.244440825437735 10.830331026498524 12.631793936218576
477 1 14.44141916648844 10.828140541913125 14.44234767026091
478 1 16.248058751591955 12.636714723487685 14.440112077708962
479 1 14.437892039548109 12.636975899761639 16.246042810471877
480 1 16.244945567053783 10.829690223519977 16.241520925197594
481 1 14.442880307726142 14.440071033192632 18.048134263984558
482 1 16.24507399887802 16.24490283912018 0.0034739817930285635
483 1 14.437736814958123 16.245217314410276 1.8075014868230024