LAMMPS Description

4 atoms
1 atom types

0.0 3.61 xlo xhi
0.0 3.61 ylo yhi
0.0 3.61 zlo zhi

Masses

1 63.55

Atoms # atomic

1 1 0.0 0.0 0.0
2 1 1.805 1.805 0.0
3 1 0.0 1.805 1.805
4 1 1.805 0.0 1.805
