LAMMPS Description

2000 atoms
1 atom types

0.0 72.2 xlo xhi
0.0 18.05 ylo yhi
0.0 18.05 zlo zhi

Masses

1 63.55

Atoms # atomic

1 1 0.03308374356112131 18.04764926984659 18.042989184368178
2 1 1.7784752802019446 1.787241247704402 0.010964181273869309
3 1 0.026583876186120788 1.8116673912480716 1.7863580902014906
4 1 1.8029847118914557 0.032627805546097614 1.81136449503423
5 1 0.0022911743544042494 0.011069313125140503 3.576186607340161
6 1 1.8155537220984277 1.8318153767004115 3.5909012315452333
7 1 0.0158456326411738 1.7733906418881877 5.404003332635156
8 1 1.8014047093589332 18.039894459721946 5.382834109251175
9 1 0.003085689274164772 18.043713201967915 7.2550960697893485
10 1 1.8304093697766075 1.7778262908707494 7.214685144383084
11 1 0.010182630849387564 1.789141296013785 9.054164414910524
12 1 1.8130778176010984 18.041822078842888 8.993146687198115
13 1 0.0163208210209675 0.010825522214911981 10.803485960918632
14 1 1.823242837917448 1.7752325141523482 10.828699834051799
15 1 0.025061122365572636 1.8003297099874054 12.611948076567835
16 1 1.8038226027595878 18.048463304326607 12.670728791517941
17 1 0.0030257569312791945 0.027002408700814443 14.419876596627516
18 1 1.775534545601954 1.7934857121243315 14.427527185002653
19 1 0.006013654575413833 1.8300998652852019 16.26546405341905
20 1 1.7792044646795935 18.04565492438977 16.217996100016716
21 1 0.02894751122853286 3.5990550661451652 0.014005706480039294
22 1 1.7809809159742207 5.3919547928115525 18.044709236019656
23 1 0.012501710493247126 5.438616494957824 1.788396070747208
24 1 1.7915618135085067 3.619248554044033 1.8355169585287892
25 1 0.010045369446760906 3.641334125065678 3.6121964689874098
26 1 1.8206479916487615 5.443549730235733 3.615510781778826
27 1 0.01063253811382417 5.400900425599494 5.387505985051192
28 1 1.787302323260554 3.608013401752921 5.386492140434663
29 1 0.0020540033432471546 3.640041196451115 7.201678190233508
30 1 1.7995903442920405 5.4104881004912695 7.255152864129402
31 1 0.0053804809640406 5.42449977227887 8.990422077730859
32 1 1.8079871996782682 3.5869743331262303 9.002271701331836
33 1 0.02197298134615036 3.6313755483196184 10.850521103082507
34 1 1.8119576590215596 5.441180230618497 10.811232724493166
35 1 0.007271284518807647 5.406823726329993 12.669060862105425
36 1 1.8142760054065972 3.6094455979959017 12.66823550540191
37 1 0.022109322887956 3.6251890625221366 14.421488153661622
38 1 1.806033593289901 5.390354921787393 14.46542883688505
39 1 0.021419139507182623 5.4227122749387515 16.221427574397545
40 1 1.8130811148243122 3.628733013655973 16.213812323314254
41 1 0.02017491526309337 7.223151546564853 18.022052532614108
42 1 1.7882557340653082 9.019730037847397 0.02785497043712525
43 1 0.00678454801198349 8.998196427479701 1.786219787592318
44 1 1.8280575836074116 7.220401775889448 1.7841070806999
45 1 0.00020611769662594713 7.220884254764998 3.643568010419361
46 1 1.8111727660448873 9.026731457606385 3.574966438106573
47 1 0.02356422408583547 9.036278564710228 5.432989176127526
48 1 1.7750200814682526 7.224546632475675 5.392540683144834
49 1 0.015853352960566 7.207290828518129 7.19405712501041
50 1 1.7816865220932336 9.047502148140408 7.224231588472081
51 1 0.005390450683716103 8.991869674254076 9.014960629555956
52 1 1.7795145885098138 7.211310509274784 9.048217963228572
53 1 0.027789267869205755 7.217988060400853 10.847908596190235
54 1 1.8216401083405789 9.005990520388927 10.811177873071683
55 1 0.004060519849007931 9.006035800559538 12.666514360521628
56 1 1.8271221515190108 7.241129728167227 12.638126661941206
57 1 0.0037134119496446596 7.195168505490166 14.463153102005382
58 1 1.829425916039164 9.04531463998881 14.439901042622132
59 1 0.01295729025325381 9.037081803850077 16.27317046319387
60 1 1.7799335764473385 7.227229774405732 16.218833686213863
61 1 0.029648959844726878 10.83527904524802 18.039416911230127
62 1 1.7839001765498983 12.642511804544455 18.021884016293896
63 1 0.0033552552231751118 12.62684439449403 1.835957809241786
64 1 1.805145629910593 10.830849619134987 1.7667460439558607
65 1 0.002345566070758822 10.863445005569448 3.6102817336964637
66 1 1.817379691182159 12.642039084093982 3.577392277289508
67 1 0.0273381417936897 12.635451057531878 5.394316374610299
68 1 1.8098268591745963 10.833037144893153 5.448522585534132
69 1 0.00024573616508578503 10.816642321986443 7.254681554579297
70 1 1.8270538924841715 12.640160019940335 7.248360337359303
71 1 0.02066902228075184 12.619779303858692 9.003047645609254
72 1 1.7808043302786138 10.848447252815589 9.007788828423859
73 1 0.008287488543198225 10.819109337111392 10.799802337452293
74 1 1.806641180255828 12.635065107757443 10.798745686500363
75 1 0.007932493688858684 12.630076198850448 12.600527930895902
76 1 1.8049058614667914 10.829402421626426 12.66822187235712
77 1 0.0032441604646800907 10.858683237988505 14.461729607604955
78 1 1.8197392321269215 12.651569592591313 14.411480359265628
79 1 0.0341752993978813 12.634854622066774 16.24834741532383
80 1 1.7863155778532627 10.830445757225025 16.27305875819729
81 1 0.011376747272867803 14.454521892472282 18.021389234705087
82 1 1.793652137907504 16.21971467118871 18.029193079897833
83 1 0.015311150411865718 16.21816371482949 1.787966847380308
84 1 1.8328703216435491 14.455588279287596 1.8099399430682086
85 1 0.007349879310720009 14.463870483110394 3.6272888245624437
86 1 1.7823448659614205 16.230035064821234 3.6281550042071746
87 1 0.0020643716846494493 16.240820298058537 5.450128897255081
88 1 1.798463427759428 14.418826793770357 5.389560248428274
89 1 0.030677730822178645 14.431505959119193 7.240464503101801
90 1 1.7973838055930946 16.216160667038395 7.211756713683133
91 1 0.006952565151330731 16.231546810244755 9.05565964476498
92 1 1.8252376187026913 14.458913104997484 9.009884356628456
93 1 0.0070923967354037725 14.409898273846801 10.83874170607357
94 1 1.7907579567792968 16.241476958424244 10.799923794601192
95 1 0.01666433663675266 16.248375114857765 12.669598266426686
96 1 1.7788938374402068 14.417694370078248 12.646845743688523
97 1 0.00012281403276182695 14.437338327756864 14.407927016948939
98 1 1.826107034850975 16.272501355821454 14.447533598906526
99 1 0.012558563117906851 16.214231256942995 16.25427454479031
100 1 1.8036825186171033 14.418986748280151 16.221333762141303
101 1 3.611121032171942 18.044608328048565 0.032773963707612604
102 1 5.414157304353897 1.8052893715716052 18.016617939562895
103 1 3.6099354195055473 1.8030207551007043 1.7693492104952147
104 1 5.422871970150145 18.019020000208958 1.8032299416325548
105 1 3.6133564429180898 0.0028064881851441385 3.639525010207344
106 1 5.443894246815372 1.7982753869211712 3.623559432972186
107 1 3.575909949020393 1.80613553176903 5.416885867930355
108 1 5.427322025843509 0.02096545315749529 5.393612193480495
109 1 3.600059832836371 0.010329950912213313 7.1912923338671595
110 1 5.4249469216484085 1.8122790862330702 7.189586471400703
111 1 3.598785114768949 1.7822728611887795 9.044890096271171
112 1 5.422256244698832 0.0007950184871646967 8.992659986840545
113 1 3.614143390413211 18.016858799768823 10.84229779139628
114 1 5.396856574349753 1.8239585032184915 10.811416412148848
115 1 3.6209124716555943 1.8143723393412758 12.603882176063705
116 1 5.429723311445002 0.011114188167786098 12.602275319542303
117 1 3.613695071615194 0.007309088923196608 14.40871275410209
118 1 5.40928322137117 1.8055626256869495 14.474168658302153
119 1 3.591865304542097 1.8183264514663315 16.26987299172325
120 1 5.43213824263437 18.031865346548816 16.223039357389357
121 1 3.5855870321433754 3.5996850441980794 18.03118820720242
122 1 5.384160274460107 5.405989969223391 0.010695934679110041
123 1 3.6235309440882832 5.40839624722444 1.7769735618868396
124 1 5.414912421098035 3.6101735281143275 1.8365986887267227
125 1 3.6281620915304824 3.5814636212678357 3.6124190511119774
126 1 5.4266637229767225 5.447899198373267 3.6080478737972097
127 1 3.6007091236927957 5.3942893709724755 5.440069553310911
128 1 5.4084111494764 3.593658470343639 5.446588157702183
129 1 3.606827098886512 3.612947048209283 7.188073202736353
130 1 5.441394096773482 5.390934637934343 7.218566531367861
131 1 3.6377255719175627 5.426036816757749 9.041340573301472
132 1 5.426481637955735 3.6147179467734603 8.991960722618765
133 1 3.6082470609560797 3.6070165826336757 10.798199348129932
134 1 5.446392934584804 5.4252410457731495 10.819292498390526
135 1 3.586715670056406 5.413051317866233 12.609810792920724
136 1 5.41560766555343 3.6100766594340374 12.670110369492528
137 1 3.5998734541157646 3.6242517797767895 14.469227892302849
138 1 5.412692500853626 5.387736282045275 14.457454691707795
139 1 3.623558413011077 5.397583803230766 16.2205972233308
140 1 5.390946578182631 3.634182623768911 16.232852701367385
141 1 3.636516729229208 7.208713084718563 18.030784419021114
142 1 5.438481817716384 9.011846133765609 0.019293118431121407
143 1 3.590151655210552 9.001145300230668 1.782452706224867
144 1 5.420765312062374 7.250769382794183 1.8203522233808147
145 1 3.588734106560992 7.2296274777593705 3.587752903663661
146 1 5.422585472345998 9.022808305514953 3.642504822931146
147 1 3.5817095901004325 9.007887104612072 5.41636570527831
148 1 5.443454305221054 7.222183726086111 5.393818456540892
149 1 3.601685187793341 7.238580916968229 7.2446690551130075
150 1 5.405333893886424 9.019038489181229 7.253008730422185
151 1 3.5927084509191025 9.054538491867907 9.016739442047278
152 1 5.417990432649738 7.205533491189509 8.991690100194567
153 1 3.5831783381769293 7.197963504797617 10.835409376906417
154 1 5.428814377453838 8.995299744298562 10.836574597022244
155 1 3.6152950548654115 9.026673012372394 12.667052082701282
156 1 5.414315248334773 7.2315463370873925 12.666431575874508
157 1 3.6075114122247114 7.203794412807301 14.472072124111326
158 1 5.397031427726064 9.01657573851078 14.413723083879399
159 1 3.6282152590084187 9.02594187698794 16.274965291145904
160 1 5.449732067227203 7.226539510489306 16.246925888705267
161 1 3.5790027117485006 10.829618036502945 0.015224944550466487
162 1 5.429021633579538 12.66647224317694 18.039927162647345
163 1 3.6040296851457274 12.623137282837092 1.772142194847767
164 1 5.38256122381396 10.81545526381796 1.7953261111470877
165 1 3.6184955232879386 10.810643482677738 3.5819723957952356
166 1 5.409696816867773 12.637268997069194 3.64420114100598
167 1 3.60604623402354 12.63825369848384 5.44908820095859
168 1 5.424271652837853 10.849796748885318 5.443281545143779
169 1 3.6344551096896813 10.833886762147825 7.246394030105405
170 1 5.415802050881531 12.63805450115852 7.256513784417413
171 1 3.58097854790623 12.652779824725968 9.036976081393414
172 1 5.397190246422606 10.83056481715544 8.996554718875638
173 1 3.6151909225375753 10.831995079528344 10.862924848506925
174 1 5.408150210641697 12.638452384066715 10.797662014827111
175 1 3.597662438389383 12.6055199799213 12.641850990737932
176 1 5.414936402883507 10.794807857950264 12.634027267742995
177 1 3.609863954038173 10.823569549671925 14.471723530308594
178 1 5.390635795229152 12.635040914915622 14.463362960112601
179 1 3.609874403824597 12.635358098412086 16.27787825292741
180 1 5.427478403790696 10.820181513628807 16.21896680429761
181 1 3.623041393882104 14.46767873213016 0.01729479880902168
182 1 5.41028862981727 16.219389940335745 0.022785472320382742
183 1 3.59957668501455 16.25443432876904 1.8335395666368512
184 1 5.388047808653865 14.449424519117926 1.7913671218323524
185 1 3.600688567003809 14.442108716059783 3.576331261566522
186 1 5.444045782691562 16.238869039208744 3.5902939697670884
187 1 3.6161245001936586 16.24376796661745 5.4500816023132534
188 1 5.3932371380204405 14.423672424017434 5.387530743705897
189 1 3.619097872282898 14.431431966780513 7.189262325325669
190 1 5.412859052648609 16.242293267383992 7.254631793711815
191 1 3.6282554169723356 16.23944880423941 9.055541262954879
192 1 5.384915175675632 14.454841243202214 9.018838292395104
193 1 3.62232253686357 14.454160397196546 10.801358150941844
194 1 5.391257714048792 16.268811727511103 10.83302650815756
195 1 3.5969819800944767 16.247216528977457 12.603490119433761
196 1 5.402812803623085 14.425734738308593 12.60674256534595
197 1 3.6034380818558494 14.436877499473349 14.405727797195462
198 1 5.420844004710607 16.265534525729063 14.415546706931073
199 1 3.6238771916025776 16.217016092770454 16.23916749677423
200 1 5.42090021814457 14.432921473984573 16.277866138538972
201 1 7.245906193475307 0.01244332738105734 0.0027910346645359796
202 1 9.02372016010995 1.8057610218345428 0.03285520873381608
203 1 7.2136292221192555 1.8006100694388527 1.8390061238921733
204 1 9.019566201520048 18.036695935435578 1.7758760473843054
205 1 7.206002106532665 0.005813078215960575 3.6450237118413407
206 1 9.035456910875002 1.7964518019287943 3.5770055297099037
207 1 7.190864809988979 1.8203886763048678 5.403696860985439
208 1 9.02506070927834 0.0010498658719179967 5.381840844175586
209 1 7.225884458449345 18.015131222060017 7.23714025865829
210 1 9.031654126027764 1.791979778669499 7.249019385554195
211 1 7.241406321580358 1.79594065770327 9.05178353560928
212 1 9.022368878859846 18.018972414824777 9.013579651952693
213 1 7.195185288139409 0.009540209993678033 10.853088504884735
214 1 9.028322805599204 1.801907750524162 10.796382236212445
215 1 7.219212685208589 1.8059627303360701 12.601346014984438
216 1 9.032482977919587 0.024096288835605887 12.664633623101341
217 1 7.225564250902597 0.016338840562488424 14.472679120135432
218 1 9.00680455200673 1.8028470393768168 14.470144735865238
219 1 7.203742611789966 1.8047417741624416 16.215626134971377
220 1 9.042051187258725 0.02410815556173889 16.26354509522212
221 1 7.207195102442196 3.6217270899261735 0.029954776387977684
222 1 8.993461048216986 5.423409918559766 0.008421859912707629
223 1 7.199550517574729 5.433805588183338 1.8254903299616325
224 1 9.036092222411247 3.6306493276089467 1.8288741618091195
225 1 7.188794048799049 3.604333769490666 3.6155413195246946
226 1 9.056003722008276 5.402960207963459 3.5931053033183233
227 1 7.20969090878483 5.431711056037532 5.441860862582556
228 1 9.011653171854094 3.6142988192359016 5.4476657195917175
229 1 7.1929320476622935 3.5971965725691666 7.200457612556457
230 1 9.05550123672246 5.418354678472655 7.216098862668474
231 1 7.191677008610712 5.405264781730222 9.021687932467994
232 1 9.024991882541519 3.6101069835795307 8.991591612183733
233 1 7.188515821337932 3.603927394991968 10.83100720936973
234 1 9.007613098451186 5.388807224977654 10.810362793125405
235 1 7.226730472248129 5.4059164356788285 12.603941329493365
236 1 9.046437742626935 3.6285919509080364 12.617171759704878
237 1 7.192279704570875 3.6019973596235166 14.43627971638986
238 1 9.027275942333478 5.407068772452622 14.473744648319924
239 1 7.219894093976033 5.411608791569079 16.213422055666843
240 1 9.017944062691239 3.5903651222020834 16.272713299137752
241 1 7.2231449746114755 7.221132794963949 18.013773752460505
242 1 9.012840804158964 9.024801081055033 18.01968383264324
243 1 7.190524476892132 9.016215553234495 1.7827921226891286
244 1 8.992367082479404 7.214389606199753 1.7905077170896988
245 1 7.235710134408143 7.22314119622416 3.5785952574816897
246 1 9.05235969698472 9.004315269580315 3.6123462202497754
247 1 7.202056031081866 9.053988290467977 5.397933872849129
248 1 9.050419613922285 7.234708570967314 5.399556568635925
249 1 7.212970109520443 7.250667850694462 7.226967343942849
250 1 9.044812766833184 9.049447255096577 7.216046244570433
251 1 7.231497415345956 9.029571466571523 8.992270183681013
252 1 9.016902924829418 7.203734058099576 8.997930689288527
253 1 7.221219276637095 7.221219347283049 10.863971484160572
254 1 9.03006883322816 9.057922526462727 10.823738701838256
255 1 7.198667036221008 9.030708562820552 12.6617063357152
256 1 9.019067752809057 7.219536843335954 12.664277378925881
257 1 7.211224755159294 7.226694314531772 14.411287516935088
258 1 9.019180945019821 8.996876219302088 14.45606285719594
259 1 7.2187155961123075 9.036069295619988 16.211602860228812
260 1 9.030939839430191 7.189802831446961 16.25924899868284
261 1 7.190815765216002 10.833134996113031 18.029298545671914
262 1 9.050228917772376 12.614080088556133 0.011440847341498627
263 1 7.2492554168197145 12.632948537384893 1.8219243526785764
264 1 9.025713739468863 10.829582278971118 1.7698327746565032
265 1 7.187719644030337 10.841938195736038 3.6090491767350357
266 1 9.014949423978035 12.643663141176775 3.577344295392403
267 1 7.203960226179186 12.617024116913113 5.389472625300909
268 1 9.018352694032671 10.801260129976328 5.400749591500966
269 1 7.199969949821638 10.838910351867296 7.192676128715352
270 1 8.997729843646935 12.633536290051552 7.199370288363244
271 1 7.1859996997069295 12.637588782788718 9.01865833678054
272 1 8.998665942962825 10.826203809011904 9.00672139662857
273 1 7.187305453193479 10.822580664096856 10.825081145990122
274 1 9.028267663257857 12.667121318628745 10.835034939083126
275 1 7.220321993788378 12.649242094252077 12.6658681052901
276 1 9.054000152896386 10.839348888527958 12.61839798699982
277 1 7.228596233519965 10.830785628991379 14.407426212003998
278 1 9.00174922460108 12.66150281745659 14.441968022649007
279 1 7.216025244900817 12.604100661038173 16.24645672170599
280 1 9.03938294294355 10.838157074995287 16.209939544242484
281 1 7.193725635123375 14.461898456847408 18.038969377280647
282 1 8.996775543221611 16.262099137688796 0.002361102608711459
283 1 7.228639012625209 16.257981594009443 1.7697361198377037
284 1 9.011273524702748 14.428573177057153 1.778922229155773
285 1 7.215661384749368 14.43510663537873 3.575381993328634
286 1 8.990435741572288 16.2432787774964 3.6011814198632335
287 1 7.215991787280994 16.262257966320174 5.444608269785316
288 1 9.03973075931508 14.443395626401449 5.445001269263557
289 1 7.213822122385362 14.431613266012452 7.187395575882264
290 1 9.037289945843476 16.256050983562407 7.253602843708575
291 1 7.21912953806389 16.27239844532528 9.047850732071353
292 1 9.023845608424883 14.449018895245608 8.994518242270756
293 1 7.185548242767812 14.450657005728337 10.83373585817889
294 1 9.006621626883904 16.2218763616217 10.846521961364404
295 1 7.218441343320662 16.234456494394376 12.603196815024736
296 1 9.01893628142792 14.442828319167228 12.672027851581769
297 1 7.240072667131057 14.468431772680425 14.44908755105716
298 1 9.00937652332478 16.24219742739173 14.46806503982542
299 1 7.194823303010508 16.252162080991567 16.22916102502872
300 1 9.019814563960672 14.418323611706844 16.271222020767613
301 1 10.824847193804931 0.029709415225076485 0.01370541996818645
302 1 12.628788378747934 1.8388958373474635 0.005501436014842425
303 1 10.809975728019081 1.782734234293736 1.828832391476797
304 1 12.659186886979816 0.02126342425180941 1.811325321477331
305 1 10.805535561557223 0.02128474281687817 3.621363283774451
306 1 12.616999655036528 1.8273582672860043 3.5888497074567933
307 1 10.833879896320282 1.8233921961404815 5.385670514712836
308 1 12.605703193571557 18.046843730219088 5.401322111633368
309 1 10.823762844353846 18.019872970044165 7.207592979757433
310 1 12.605600318548664 1.820124109223547 7.217485447949639
311 1 10.825856476823123 1.837040221203326 9.02585341681557
312 1 12.632655501051211 0.017399686205364234 9.053135578459186
313 1 10.862969433181092 0.00133360105840173 10.83680289222715
314 1 12.631397715509538 1.8046059687893998 10.864565644936839
315 1 10.804534702955511 1.7951960953663142 12.615184459481323
316 1 12.634835554243757 18.01687393030346 12.629822057867768
317 1 10.818382028419467 0.01230198792346601 14.408889640510704
318 1 12.668274198498683 1.82161988172062 14.438873806477122
319 1 10.837371329026242 1.7760893792540535 16.26088376177605
320 1 12.627978061266536 18.02771218805484 16.271118300711542
321 1 10.84572342254832 3.6067503751120693 0.03339758804221477
322 1 12.64599381307298 5.383321479519173 18.04451607386892
323 1 10.831325882746578 5.413861109896784 1.7751382839903431
324 1 12.658872349987044 3.605114195884237 1.8270137970697338
325 1 10.829066752942971 3.643865177132512 3.613721020228108
326 1 12.604883087928457 5.405242775632039 3.6236068033750546
327 1 10.824476940581574 5.412287566957061 5.383912523516367
328 1 12.665265220042615 3.601603301791122 5.403278539273921
329 1 10.847244579815913 3.5892230571589625 7.195718645671226
330 1 12.614628223998457 5.411397791165572 7.191624246311634
331 1 10.800836348856144 5.41319160939889 9.037674623456683
332 1 12.668259048641557 3.595176375971864 9.015584641878277
333 1 10.83288734624653 3.5731511944324263 10.838215737715682
334 1 12.63611020423545 5.428703168315709 10.796836207572776
335 1 10.837302354094225 5.395653855628186 12.606164967670878
336 1 12.645331774113822 3.602746008865984 12.59748509916358
337 1 10.82439235806507 3.603776312627104 14.406064765719107
338 1 12.63817952588263 5.446472044151109 14.42869180787255
339 1 10.799221455703293 5.429056056191598 16.236373934049748
340 1 12.6239199279388 3.628089183993711 16.274014713482405
341 1 10.820596716643934 7.229859388997759 18.015526365018736
342 1 12.631847772064654 8.996531532963116 0.0172569974147591
343 1 10.820172687410535 8.994326090057779 1.8158888017534467
344 1 12.62923116682127 7.220523026541797 1.8395355150327213
345 1 10.840507730575682 7.225741606981802 3.5766180144759905
346 1 12.604384592383711 9.014685980566751 3.593181726779821
347 1 10.829583312719626 9.032235935213698 5.379809137119013
348 1 12.651113588519983 7.197641806670663 5.395193016806876
349 1 10.82225246110795 7.189701157181214 7.229341641393449
350 1 12.656284039795889 9.027561369662674 7.250234418493496
351 1 10.828615918565463 9.048872180217202 9.050325445664626
352 1 12.634971465969592 7.2188765918912 8.99530653519116
353 1 10.838326872703947 7.215944100435388 10.860856698344303
354 1 12.634096707678633 8.998476791060483 10.847242055922429
355 1 10.818773770092939 9.025648136722879 12.667576505516031
356 1 12.66535901888878 7.231751332177481 12.627395499262287
357 1 10.812913498789902 7.211177165338579 14.413316730697769
358 1 12.602713503273076 9.032692072021721 14.437224820023623
359 1 10.83389042488677 9.023978678280399 16.274793762312864
360 1 12.664670922019178 7.225412526462888 16.230920806356714
361 1 10.82577186159349 10.819867623742958 18.018013873417466
362 1 12.648324239850124 12.666867367649777 0.015209330977001057
363 1 10.813832601179447 12.628513270260981 1.833221663008376
364 1 12.640269671295714 10.794287316997794 1.8096956611755874
365 1 10.857455813095386 10.832400884864045 3.5879208623183967
366 1 12.655194521196947 12.634692520584021 3.6412381475143083
367 1 10.798255976448512 12.627805081099796 5.433564620353424
368 1 12.634436755507334 10.834624558690331 5.379727575320767
369 1 10.831475356067926 10.83784491525818 7.185402094253607
370 1 12.626786524364764 12.599616917923933 7.214871892904645
371 1 10.825866160044793 12.639480631945895 9.060058103910242
372 1 12.627855653396491 10.817016757321527 8.993369173621481
373 1 10.824240387817264 10.839140750230328 10.862973338268963
374 1 12.641139171561097 12.64355377723979 10.798738214064098
375 1 10.840220859583823 12.634737762140084 12.602946750257557
376 1 12.614956380277421 10.812942110848406 12.613182488522447
377 1 10.831126167524129 10.832225120286067 14.405117115574875
378 1 12.645644498240456 12.643110920721131 14.474260621743635
379 1 10.828925668872442 12.634529160659644 16.212509151379507
380 1 12.641694750759356 10.820818300768687 16.21181510947306
381 1 10.818407768101434 14.442659694189597 0.03131110247920161
382 1 12.662212953249487 16.24874520112553 18.032184423581896
383 1 10.850027828167866 16.257155379364484 1.7787159485126962
384 1 12.65204274588883 14.422709209640846 1.7798908634078197
385 1 10.842252052189048 14.45669196405156 3.5833859344055607
386 1 12.64152745068054 16.244446759905994 3.580004477685479
387 1 10.802639246085835 16.235450553424744 5.43457227268165
388 1 12.627199672094855 14.437392322857917 5.446636757029044
389 1 10.826246808123432 14.425843216664468 7.186256625247548
390 1 12.632018564836459 16.250993972236493 7.254293795007797
391 1 10.809457876492514 16.253899073690302 9.048161971736608
392 1 12.604753611551429 14.4536949060025 9.014294188981614
393 1 10.829251273772856 14.439320371750357 10.864028751678285
394 1 12.635038196787223 16.245882651017048 10.797251290995838
395 1 10.841992365960959 16.27133568665684 12.647923058125155
396 1 12.614884712564402 14.424544099920906 12.659307549734256
397 1 10.821741694253898 14.447408879345282 14.406418808999518
398 1 12.665649055307588 16.236928001301727 14.446000790648826
399 1 10.798635318723406 16.258335091725844 16.248917189084114
400 1 12.622128003559398 14.410019490063448 16.25018067976522
401 1 14.444169252007356 0.009988862016980918 0.030087666376335895
402 1 16.27866564801169 1.8108717335418119 0.0055961904564980815
403 1 14.452714377304265 1.7848231861002128 1.8292933035510448
404 1 16.257528793397384 0.022447226486606395 1.7828767532088983
405 1 14.44873337852002 0.030097616807637576 3.5993273650262076
406 1 16.273242900455966 1.8222783986463487 3.6102795150256553
407 1 14.427472735034007 1.8043219665010308 5.384603479493068
408 1 16.271044953448207 0.011028285127448667 5.39729720620324
409 1 14.467956135345572 0.004800152391548698 7.2414674937966215
410 1 16.22825530021017 1.8200388820525695 7.193289890559814
411 1 14.453074369286652 1.7839358642920227 9.047566957281882
412 1 16.26392697913902 0.005783178072949471 9.052464247078206
413 1 14.426587700776635 0.03198431339078811 10.832961550371632
414 1 16.277070022136723 1.8038117270964833 10.814141321281783
415 1 14.461885173037626 1.820093995272875 12.618259423985327
416 1 16.22227633471987 18.04855795168654 12.610726159026253
417 1 14.435580142382548 0.0028185883780213624 14.406164369830684
418 1 16.242476865356842 1.8262425690676094 14.416141171161943
419 1 14.453418975361178 1.802856514086221 16.274596393876216
420 1 16.228339313308375 0.028619324572748264 16.24606517253606
421 1 14.468909015077163 3.621532137997053 0.014520251584145405
422 1 16.237458361988434 5.4133383411104505 0.03200894722411515
423 1 14.449935929609255 5.386161314470609 1.808002076416721
424 1 16.245228593916927 3.610063922977667 1.7709579460394351
425 1 14.449076515877959 3.618077612088865 3.640807660063852
426 1 16.236082816764444 5.386385274023882 3.593810586138962
427 1 14.407906610153644 5.418408654057533 5.410401446242339
428 1 16.231165401805065 3.585153557410316 5.434888853298416
429 1 14.45390277408899 3.597780523772893 7.192304838989923
430 1 16.277189305174236 5.426261350122222 7.210121220298492
431 1 14.443559542308673 5.42006135857403 9.061810351185883
432 1 16.224119340641696 3.6152078583191214 9.05220519317746
433 1 14.451301561154427 3.6359574267737966 10.850986309345968
434 1 16.23858610647197 5.445037388755213 10.848469455373548
435 1 14.460924423606835 5.435546071577299 12.62418261236062
436 1 16.27713237411776 3.5964755981219194 12.632828927142956
437 1 14.413278331199995 3.5881691030415266 14.437699153078785
438 1 16.238854699072327 5.442754524264278 14.453662274603849
439 1 14.4393320737458 5.419020924271093 16.279890258108193
440 1 16.258453898919544 3.626798862138714 16.273961870168637
441 1 14.445184595981072 7.221068300543531 0.03309137030484059
442 1 16.258309796821138 9.03830944955829 0.03052946590492854
443 1 14.451840379980855 9.034684211059329 1.8387032509950145
444 1 16.26242405152915 7.252095671118849 1.8095239475240101
445 1 14.419508982754042 7.1926694108363955 3.6086323385395684
446 1 16.24424309378964 9.025612067334912 3.644393674501713
447 1 14.436414249496986 9.027561353715775 5.383603135499436
448 1 16.2509638651516 7.215456510006864 5.380520847847333
449 1 14.440022102822066 7.220031075373411 7.188174644696517
450 1 16.25096522658709 9.004271314261064 7.1910213711079205
451 1 14.4551156105227 9.037118996293263 9.048503942037428
452 1 16.24251021902417 7.198871759229169 8.999601652085772
453 1 14.461773440757044 7.195965169904801 10.816474014375917
454 1 16.230469285660117 9.040160160146025 10.801816935643101
455 1 14.415718412727426 9.047746031271664 12.619549911535195
456 1 16.239121223555816 7.219823621072572 12.66750305725782
457 1 14.416306184439193 7.239924497128029 14.429456351293668
458 1 16.24790056287758 9.027748408582946 14.406552427449137
459 1 14.451700499950194 9.037429949859316 16.213124283322717
460 1 16.26400140996077 7.220364508769981 16.27136473572112
461 1 14.415747859385856 10.832923477719515 0.024727348273604
462 1 16.245998229439426 12.606050622644549 0.009422424325866012
463 1 14.441689363322675 12.628068449515208 1.8335363480367661
464 1 16.243342132541184 10.837286260712094 1.8397052623905537
465 1 14.410295232958969 10.823639169587212 3.6022481130710564
466 1 16.25561516040296 12.628691360248867 3.6434198601975023
467 1 14.453177925950389 12.638077904416809 5.445398154283828
468 1 16.277862193612656 10.821996689535023 5.407299029402959
469 1 14.426832434739964 10.801941655134293 7.234465701266013
470 1 16.2444531165227 12.634482052951434 7.185514496567318
471 1 14.433371298554466 12.653675655180676 8.996333015195184
472 1 16.25133592932907 10.795992732007356 9.021614536293761
473 1 14.40805079873816 10.84467923598906 10.836121404661041
474 1 16.242372361950597 12.607994266020325 10.85300325891563
475 1 14.420091837883305 12.659997127373037 12.628881951469383
476 1 16.258512902522188 10.806139823618762 12.650773866611532
477 1 14.42098965916476 10.847742648701695 14.416520934505892
478 1 16.21938032620472 12.657297105583748 14.43182520523191
479 1 14.455429637555412 12.664691299901913 16.23396930917773
480 1 16.243746281428955 10.84032069275672 16.27561346743384
481 1 14.452708988414187 14.45987792639913 18.024106723814057
482 1 16.231780367408913 16.230934729791013 0.029440091696389975
483 1 14.410482124175932 16.226480022653416 1.8039987939157556