LAMMPS Description

864 atoms
1 atom types

0.0 24.54 xlo xhi
0.0 24.54 ylo yhi
0.0 24.54 zlo zhi

Masses

1 107.87

Atoms # atomic

1 1 0.0 0.0 0.0
2 1 2.045 2.045 0.0
3 1 0.0 2.045 2.045
4 1 2.045 0.0 2.045
5 1 0.0 0.0 4.09
6 1 2.045 2.045 4.09
7 1 0.0 2.045 6.135
8 1 2.045 0.0 6.135
9 1 0.0 0.0 8.18
10 1 2.045 2.045 8.18
11 1 0.0 2.045 10.225
12 1 2.045 0.0 10.225
13 1 0.0 0.0 12.27
14 1 2.045 2.045 12.27
15 1 0.0 2.045 14.315
16 1 2.045 0.0 14.315
17 1 0.0 0.0 16.36
18 1 2.045 2.045 16.36
19 1 0.0 2.045 18.405
20 1 2.045 0.0 18.405
21 1 0.0 0.0 20.45
22 1 2.045 2.045 20.45
23 1 0.0 2.045 22.494999999999997
24 1 2.045 0.0 22.494999999999997
25 1 0.0 4.09 0.0
26 1 2.045 6.135 0.0
27 1 0.0 6.135 2.045
28 1 2.045 4.09 2.045
29 1 0.0 4.09 4.09
30 1 2.045 6.135 4.09
31 1 0.0 6.135 6.135
32 1 2.045 4.09 6.135
33 1 0.0 4.09 8.18
34 1 2.045 6.135 8.18
35 1 0.0 6.135 10.225
36 1 2.045 4.09 10.225
37 1 0.0 4.09 12.27
38 1 2.045 6.135 12.27
39 1 0.0 6.135 14.315
40 1 2.045 4.09 14.315
41 1 0.0 4.09 16.36
42 1 2.045 6.135 16.36
43 1 0.0 6.135 18.405
44 1 2.045 4.09 18.405
45 1 0.0 4.09 20.45
46 1 2.045 6.135 20.45
47 1 0.0 6.135 22.494999999999997
48 1 2.045 4.09 22.494999999999997
49 1 0.0 8.18 0.0
50 1 2.045 10.225 0.0
51 1 0.0 10.225 2.045
52 1 2.045 8.18 2.045
53 1 0.0 8.18 4.09
54 1 2.045 10.225 4.09
55 1 0.0 10.225 6.135
56 1 2.045 8.18 6.135
57 1 0.0 8.18 8.18
58 1 2.045 10.225 8.18
59 1 0.0 10.225 10.225
60 1 2.045 8.18 10.225
61 1 0.0 8.18 12.27
62 1 2.045 10.225 12.27
63 1 0.0 10.225 14.315
64 1 2.045 8.18 14.315
65 1 0.0 8.18 16.36
66 1 2.045 10.225 16.36
67 1 0.0 10.225 18.405
68 1 2.045 8.18 18.405
69 1 0.0 8.18 20.45
70 1 2.045 10.225 20.45
71 1 0.0 10.225 22.494999999999997
72 1 2.045 8.18 22.494999999999997
73 1 0.0 12.27 0.0
74 1 2.045 14.315 0.0
75 1 0.0 14.315 2.045
76 1 2.045 12.27 2.045
77 1 0.0 12.27 4.09
78 1 2.045 14.315 4.09
79 1 0.0 14.315 6.135
80 1 2.045 12.27 6.135
81 1 0.0 12.27 8.18
82 1 2.045 14.315 8.18
83 1 0.0 14.315 10.225
84 1 2.045 12.27 10.225
85 1 0.0 12.27 12.27
86 1 2.045 14.315 12.27
87 1 0.0 14.315 14.315
88 1 2.045 12.27 14.315
89 1 0.0 12.27 16.36
90 1 2.045 14.315 16.36
91 1 0.0 14.315 18.405
92 1 2.045 12.27 18.405
93 1 0.0 12.27 20.45
94 1 2.045 14.315 20.45
95 1 0.0 14.315 22.494999999999997
96 1 2.045 12.27 22.494999999999997
97 1 0.0 16.36 0.0
98 1 2.045 18.405 0.0
99 1 0.0 18.405 2.045
100 1 2.045 16.36 2.045
101 1 0.0 16.36 4.09
102 1 2.045 18.405 4.09
103 1 0.0 18.405 6.135
104 1 2.045 16.36 6.135
105 1 0.0 16.36 8.18
106 1 2.045 18.405 8.18
107 1 0.0 18.405 10.225
108 1 2.045 16.36 10.225
109 1 0.0 16.36 12.27
110 1 2.045 18.405 12.27
111 1 0.0 18.405 14.315
112 1 2.045 16.36 14.315
113 1 0.0 16.36 16.36
114 1 2.045 18.405 16.36
115 1 0.0 18.405 18.405
116 1 2.045 16.36 18.405
117 1 0.0 16.36 20.45
118 1 2.045 18.405 20.45
119 1 0.0 18.405 22.494999999999997
120 1 2.045 16.36 22.494999999999997
121 1 0.0 20.45 0.0
122 1 2.045 22.494999999999997 0.0
123 1 0.0 22.494999999999997 2.045
124 1 2.045 20.45 2.045
125 1 0.0 20.45 4.09
126 1 2.045 22.494999999999997 4.09
127 1 0.0 22.494999999999997 6.135
128 1 2.045 20.45 6.135
129 1 0.0 20.45 8.18
130 1 2.045 22.494999999999997 8.18
131 1 0.0 22.494999999999997 10.225
132 1 2.045 20.45 10.225
133 1 0.0 20.45 12.27
134 1 2.045 22.494999999999997 12.27
135 1 0.0 22.494999999999997 14.315
136 1 2.045 20.45 14.315
137 1 0.0 20.45 16.36
138 1 2.045 22.494999999999997 16.36
139 1 0.0 22.494999999999997 18.405
140 1 2.045 20.45 18.405
141 1 0.0 20.45 20.45
142 1 2.045 22.494999999999997 20.45
143 1 0.0 22.494999999999997 22.494999999999997
144 1 2.045 20.45 22.494999999999997
145 1 4.09 0.0 0.0
146 1 6.135 2.045 0.0
147 1 4.09 2.045 2.045
148 1 6.135 0.0 2.045
149 1 4.09 0.0 4.09
150 1 6.135 2.045 4.09
151 1 4.09 2.045 6.135
152 1 6.135 0.0 6.135
153 1 4.09 0.0 8.18
154 1 6.135 2.045 8.18
155 1 4.09 2.045 10.225
156 1 6.135 0.0 10.225
157 1 4.09 0.0 12.27
158 1 6.135 2.045 12.27
159 1 4.09 2.045 14.315
160 1 6.135 0.0 14.315
161 1 4.09 0.0 16.36
162 1 6.135 2.045 16.36
163 1 4.09 2.045 18.405
164 1 6.135 0.0 18.405
165 1 4.09 0.0 20.45
166 1 6.135 2.045 20.45
167 1 4.09 2.045 22.494999999999997
168 1 6.135 0.0 22.494999999999997
169 1 4.09 4.09 0.0
170 1 6.135 6.135 0.0
171 1 4.09 6.135 2.045
172 1 6.135 4.09 2.045
173 1 4.09 4.09 4.09
174 1 6.135 6.135 4.09
175 1 4.09 6.135 6.135
176 1 6.135 4.09 6.135
177 1 4.09 4.09 8.18
178 1 6.135 6.135 8.18
179 1 4.09 6.135 10.225
180 1 6.135 4.09 10.225
181 1 4.09 4.09 12.27
182 1 6.135 6.135 12.27
183 1 4.09 6.135 14.315
184 1 6.135 4.09 14.315
185 1 4.09 4.09 16.36
186 1 6.135 6.135 16.36
187 1 4.09 6.135 18.405
188 1 6.135 4.09 18.405
189 1 4.09 4.09 20.45
190 1 6.135 6.135 20.45
191 1 4.09 6.135 22.494999999999997
192 1 6.135 4.09 22.494999999999997
193 1 4.09 8.18 0.0
194 1 6.135 10.225 0.0
195 1 4.09 10.225 2.045
196 1 6.135 8.18 2.045
197 1 4.09 8.18 4.09
198 1 6.135 10.225 4.09
199 1 4.09 10.225 6.135
200 1 6.135 8.18 6.135
201 1 4.09 8.18 8.18
202 1 6.135 10.225 8.18
203 1 4.09 10.225 10.225
204 1 6.135 8.18 10.225
205 1 4.09 8.18 12.27
206 1 6.135 10.225 12.27
207 1 4.09 10.225 14.315
208 1 6.135 8.18 14.315
209 1 4.09 8.18 16.36
210 1 6.135 10.225 16.36
211 1 4.09 10.225 18.405
212 1 6.135 8.18 18.405
213 1 4.09 8.18 20.45
214 1 6.135 10.225 20.45
215 1 4.09 10.225 22.494999999999997
216 1 6.135 8.18 22.494999999999997
217 1 4.09 12.27 0.0
218 1 6.135 14.315 0.0
219 1 4.09 14.315 2.045
220 1 6.135 12.27 2.045
221 1 4.09 12.27 4.09
222 1 6.135 14.315 4.09
223 1 4.09 14.315 6.135
224 1 6.135 12.27 6.135
225 1 4.09 12.27 8.18
226 1 6.135 14.315 8.18
227 1 4.09 14.315 10.225
228 1 6.135 12.27 10.225
229 1 4.09 12.27 12.27
230 1 6.135 14.315 12.27
231 1 4.09 14.315 14.315
232 1 6.135 12.27 14.315
233 1 4.09 12.27 16.36
234 1 6.135 14.315 16.36
235 1 4.09 14.315 18.405
236 1 6.135 12.27 18.405
237 1 4.09 12.27 20.45
238 1 6.135 14.315 20.45
239 1 4.09 14.315 22.494999999999997
240 1 6.135 12.27 22.494999999999997
241 1 4.09 16.36 0.0
242 1 6.135 18.405 0.0
243 1 4.09 18.405 2.045
244 1 6.135 16.36 2.045
245 1 4.09 16.36 4.09
246 1 6.135 18.405 4.09
247 1 4.09 18.405 6.135
248 1 6.135 16.36 6.135
249 1 4.09 16.36 8.18
250 1 6.135 18.405 8.18
251 1 4.09 18.405 10.225
252 1 6.135 16.36 10.225
253 1 4.09 16.36 12.27
254 1 6.135 18.405 12.27
255 1 4.09 18.405 14.315
256 1 6.135 16.36 14.315
257 1 4.09 16.36 16.36
258 1 6.135 18.405 16.36
259 1 4.09 18.405 18.405
260 1 6.135 16.36 18.405
261 1 4.09 16.36 20.45
262 1 6.135 18.405 20.45
263 1 4.09 18.405 22.494999999999997
264 1 6.135 16.36 22.494999999999997
265 1 4.09 20.45 0.0
266 1 6.135 22.494999999999997 0.0
267 1 4.09 22.494999999999997 2.045
268 1 6.135 20.45 2.045
269 1 4.09 20.45 4.09
270 1 6.135 22.494999999999997 4.09
271 1 4.09 22.494999999999997 6.135
272 1 6.135 20.45 6.135
273 1 4.09 20.45 8.18
274 1 6.135 22.494999999999997 8.18
275 1 4.09 22.494999999999997 10.225
276 1 6.135 20.45 10.225
277 1 4.09 20.45 12.27
278 1 6.135 22.494999999999997 12.27
279 1 4.09 22.494999999999997 14.315
280 1 6.135 20.45 14.315
281 1 4.09 20.45 16.36
282 1 6.135 22.494999999999997 16.36
283 1 4.09 22.494999999999997 18.405
284 1 6.135 20.45 18.405
285 1 4.09 20.45 20.45
286 1 6.135 22.494999999999997 20.45
287 1 4.09 22.494999999999997 22.494999999999997
288 1 6.135 20.45 22.494999999999997
289 1 8.18 0.0 0.0
290 1 10.225 2.045 0.0
291 1 8.18 2.045 2.045
292 1 10.225 0.0 2.045
293 1 8.18 0.0 4.09
294 1 10.225 2.045 4.09
295 1 8.18 2.045 6.135
296 1 10.225 0.0 6.135
297 1 8.18 0.0 8.18
298 1 10.225 2.045 8.18
299 1 8.18 2.045 10.225
300 1 10.225 0.0 10.225
301 1 8.18 0.0 12.27
302 1 10.225 2.045 12.27
303 1 8.18 2.045 14.315
304 1 10.225 0.0 14.315
305 1 8.18 0.0 16.36
306 1 10.225 2.045 16.36
307 1 8.18 2.045 18.405
308 1 10.225 0.0 18.405
309 1 8.18 0.0 20.45
310 1 10.225 2.045 20.45
311 1 8.18 2.045 22.494999999999997
312 1 10.225 0.0 22.494999999999997
313 1 8.18 4.09 0.0
314 1 10.225 6.135 0.0
315 1 8.18 6.135 2.045
316 1 10.225 4.09 2.045
317 1 8.18 4.09 4.09
318 1 10.225 6.135 4.09
319 1 8.18 6.135 6.135
320 1 10.225 4.09 6.135
321 1 8.18 4.09 8.18
322 1 10.225 6.135 8.18
323 1 8.18 6.135 10.225
324 1 10.225 4.09 10.225
325 1 8.18 4.09 12.27
326 1 10.225 6.135 12.27
327 1 8.18 6.135 14.315
328 1 10.225 4.09 14.315
329 1 8.18 4.09 16.36
330 1 10.225 6.135 16.36
331 1 8.18 6.135 18.405
332 1 10.225 4.09 18.405
333 1 8.18 4.09 20.45
334 1 10.225 6.135 20.45
335 1 8.18 6.135 22.494999999999997
336 1 10.225 4.09 22.494999999999997
337 1 8.18 8.18 0.0
338 1 10.225 10.225 0.0
339 1 8.18 10.225 2.045
340 1 10.225 8.18 2.045
341 1 8.18 8.18 4.09
342 1 10.225 10.225 4.09
343 1 8.18 10.225 6.135
344 1 10.225 8.18 6.135
345 1 8.18 8.18 8.18
346 1 10.225 10.225 8.18
347 1 8.18 10.225 10.225
348 1 10.225 8.18 10.225
349 1 8.18 8.18 12.27
350 1 10.225 10.225 12.27
351 1 8.18 10.225 14.315
352 1 10.225 8.18 14.315
353 1 8.18 8.18 16.36
354 1 10.225 10.225 16.36
355 1 8.18 10.225 18.405
356 1 10.225 8.18 18.405
357 1 8.18 8.18 20.45
358 1 10.225 10.225 20.45
359 1 8.18 10.225 22.494999999999997
360 1 10.225 8.18 22.494999999999997
361 1 8.18 12.27 0.0
362 1 10.225 14.315 0.0
363 1 8.18 14.315 2.045
364 1 10.225 12.27 2.045
365 1 8.18 12.27 4.09
366 1 10.225 14.315 4.09
367 1 8.18 14.315 6.135
368 1 10.225 12.27 6.135
369 1 8.18 12.27 8.18
370 1 10.225 14.315 8.18
371 1 8.18 14.315 10.225
372 1 10.225 12.27 10.225
373 1 8.18 12.27 12.27
374 1 10.225 14.315 12.27
375 1 8.18 14.315 14.315
376 1 10.225 12.27 14.315
377 1 8.18 12.27 16.36
378 1 10.225 14.315 16.36
379 1 8.18 14.315 18.405
380 1 10.225 12.27 18.405
381 1 8.18 12.27 20.45
382 1 10.225 14.315 20.45
383 1 8.18 14.315 22.494999999999997
384 1 10.225 12.27 22.494999999999997
385 1 8.18 16.36 0.0
386 1 10.225 18.405 0.0
387 1 8.18 18.405 2.045
388 1 10.225 16.36 2.045
389 1 8.18 16.36 4.09
390 1 10.225 18.405 4.09
391 1 8.18 18.405 6.135
392 1 10.225 16.36 6.135
393 1 8.18 16.36 8.18
394 1 10.225 18.405 8.18
395 1 8.18 18.405 10.225
396 1 10.225 16.36 10.225
397 1 8.18 16.36 12.27
398 1 10.225 18.405 12.27
399 1 8.18 18.405 14.315
400 1 10.225 16.36 14.315
401 1 8.18 16.36 16.36
402 1 10.225 18.405 16.36
403 1 8.18 18.405 18.405
404 1 10.225 16.36 18.405
405 1 8.18 16.36 20.45
406 1 10.225 18.405 20.45
407 1 8.18 18.405 22.494999999999997
408 1 10.225 16.36 22.494999999999997
409 1 8.18 20.45 0.0
410 1 10.225 22.494999999999997 0.0
411 1 8.18 22.494999999999997 2.045
412 1 10.225 20.45 2.045
413 1 8.18 20.45 4.09
414 1 10.225 22.494999999999997 4.09
415 1 8.18 22.494999999999997 6.135
416 1 10.225 20.45 6.135
417 1 8.18 20.45 8.18
418 1 10.225 22.494999999999997 8.18
419 1 8.18 22.494999999999997 10.225
420 1 10.225 20.45 10.225
421 1 8.18 20.45 12.27
422 1 10.225 22.494999999999997 12.27
423 1 8.18 22.494999999999997 14.315
424 1 10.225 20.45 14.315
425 1 8.18 20.45 16.36
426 1 10.225 22.494999999999997 16.36
427 1 8.18 22.494999999999997 18.405
428 1 10.225 20.45 18.405
429 1 8.18 20.45 20.45
430 1 10.225 22.494999999999997 20.45
431 1 8.18 22.494999999999997 22.494999999999997
432 1 10.225 20.45 22.494999999999997
433 1 12.27 0.0 0.0
434 1 14.315 2.045 0.0
435 1 12.27 2.045 2.045
436 1 14.315 0.0 2.045
437 1 12.27 0.0 4.09
438 1 14.315 2.045 4.09
439 1 12.27 2.045 6.135
440 1 14.315 0.0 6.135
441 1 12.27 0.0 8.18
442 1 14.315 2.045 8.18
443 1 12.27 2.045 10.225
444 1 14.315 0.0 10.225
445 1 12.27 0.0 12.27
446 1 14.315 2.045 12.27
447 1 12.27 2.045 14.315
448 1 14.315 0.0 14.315
449 1 12.27 0.0 16.36
450 1 14.315 2.045 16.36
451 1 12.27 2.045 18.405
452 1 14.315 0.0 18.405
453 1 12.27 0.0 20.45
454 1 14.315 2.045 20.45
455 1 12.27 2.045 22.494999999999997
456 1 14.315 0.0 22.494999999999997
457 1 12.27 4.09 0.0
458 1 14.315 6.135 0.0
459 1 12.27 6.135 2.045
460 1 14.315 4.09 2.045
461 1 12.27 4.09 4.09
462 1 14.315 6.135 4.09
463 1 12.27 6.135 6.135
464 1 14.315 4.09 6.135
465 1 12.27 4.09 8.18
466 1 14.315 6.135 8.18
467 1 12.27 6.135 10.225
468 1 14.315 4.09 10.225
469 1 12.27 4.09 12.27
470 1 14.315 6.135 12.27
471 1 12.27 6.135 14.315
472 1 14.315 4.09 14.315
473 1 12.27 4.09 16.36
474 1 14.315 6.135 16.36
475 1 12.27 6.135 18.405
476 1 14.315 4.09 18.405
477 1 12.27 4.09 20.45
478 1 14.315 6.135 20.45
479 1 12.27 6.135 22.494999999999997
480 1 14.315 4.09 22.494999999999997
481 1 12.27 8.18 0.0
482 1 14.315 10.225 0.0
483 1 12.27 10.225 2.045
484 1 14.315 8.18 2.045
485 1 12.27 8.18 4.09
486 1 14.315 10.225 4.09
487 1 12.27 10.225 6.135
488 1 14.315 8.18 6.135
489 1 12.27 8.18 8.18
490 1 14.315 10.225 8.18
491 1 12.27 10.225 10.225
492 1 14.315 8.18 10.225
493 1 12.27 8.18 12.27
494 1 14.315 10.225 12.27
495 1 12.27 10.225 14.315
496 1 14.315 8.18 14.315
497 1 12.27 8.18 16.36
498 1 14.315 10.225 16.36
499 1 12.27 10.225 18.405
500 1 14.315 8.18 18.405
501 1 12.27 8.18 20.45
502 1 14.315 10.225 20.45
503 1 12.27 10.225 22.494999999999997
504 1 14.315 8.18 22.494999999999997
505 1 12.27 12.27 0.0
506 1 14.315 14.315 0.0
507 1 12.27 14.315 2.045
508 1 14.315 12.27 2.045
509 1 12.27 12.27 4.09
510 1 14.315 14.315 4.09
511 1 12.27 14.315 6.135
512 1 14.315 12.27 6.135
513 1 12.27 12.27 8.18
514 1 14.315 14.315 8.18
515 1 12.27 14.315 10.225
516 1 14.315 12.27 10.225
517 1 12.27 12.27 12.27
518 1 14.315 14.315 12.27
519 1 12.27 14.315 14.315
520 1 14.315 12.27 14.315
521 1 12.27 12.27 16.36
522 1 14.315 14.315 16.36
523 1 12.27 14.315 18.405
524 1 14.315 12.27 18.405
525 1 12.27 12.27 20.45
526 1 14.315 14.315 20.45
527 1 12.27 14.315 22.494999999999997
528 1 14.315 12.27 22.494999999999997
529 1 12.27 16.36 0.0
530 1 14.315 18.405 0.0
531 1 12.27 18.405 2.045
532 1 14.315 16.36 2.045
533 1 12.27 16.36 4.09
534 1 14.315 18.405 4.09
535 1 12.27 18.405 6.135
536 1 14.315 16.36 6.135
537 1 12.27 16.36 8.18
538 1 14.315 18.405 8.18
539 1 12.27 18.405 10.225
540 1 14.315 16.36 10.225
541 1 12.27 16.36 12.27
542 1 14.315 18.405 12.27
543 1 12.27 18.405 14.315
544 1 14.315 16.36 14.315
545 1 12.27 16.36 16.36
546 1 14.315 18.405 16.36
547 1 12.27 18.405 18.405
548 1 14.315 16.36 18.405
549 1 12.27 16.36 20.45
550 1 14.315 18.405 20.45
551 1 12.27 18.405 22.494999999999997
552 1 14.315 16.36 22.494999999999997
553 1 12.27 20.45 0.0
554 1 14.315 22.494999999999997 0.0
555 1 12.27 22.494999999999997 2.045
556 1 14.315 20.45 2.045
557 1 12.27 20.45 4.09
558 1 14.315 22.494999999999997 4.09
559 1 12.27 22.494999999999997 6.135
560 1 14.315 20.45 6.135
561 1 12.27 20.45 8.18
562 1 14.315 22.494999999999997 8.18
563 1 12.27 22.494999999999997 10.225
564 1 14.315 20.45 10.225
565 1 12.27 20.45 12.27
566 1 14.315 22.494999999999997 12.27
567 1 12.27 22.494999999999997 14.315
568 1 14.315 20.45 14.315
569 1 12.27 20.45 16.36
570 1 14.315 22.494999999999997 16.36
571 1 12.27 22.494999999999997 18.405
572 1 14.315 20.45 18.405
573 1 12.27 20.45 20.45
574 1 14.315 22.494999999999997 20.45
575 1 12.27 22.494999999999997 22.494999999999997
576 1 14.315 20.45 22.494999999999997
577 1 16.36 0.0 0.0
578 1 18.405 2.045 0.0
579 1 16.36 2.045 2.045
580 1 18.405 0.0 2.045
581 1 16.36 0.0 4.09
582 1 18.405 2.045 4.09
583 1 16.36 2.045 6.135
584 1 18.405 0.0 6.135
585 1 16.36 0.0 8.18
586 1 18.405 2.045 8.18
587 1 16.36 2.045 10.225
588 1 18.405 0.0 10.225
589 1 16.36 0.0 12.27
590 1 18.405 2.045 12.27
591 1 16.36 2.045 14.315
592 1 18.405 0.0 14.315
593 1 16.36 0.0 16.36
594 1 18.405 2.045 16.36
595 1 16.36 2.045 18.405
596 1 18.405 0.0 18.405
597 1 16.36 0.0 20.45
598 1 18.405 2.045 20.45
599 1 16.36 2.045 22.494999999999997
600 1 18.405 0.0 22.494999999999997
601 1 16.36 4.09 0.0
602 1 18.405 6.135 0.0
603 1 16.36 6.135 2.045
604 1 18.405 4.09 2.045
605 1 16.36 4.09 4.09
606 1 18.405 6.135 4.09
607 1 16.36 6.135 6.135
608 1 18.405 4.09 6.135
609 1 16.36 4.09 8.18
610 1 18.405 6.135 8.18
611 1 16.36 6.135 10.225
612 1 18.405 4.09 10.225
613 1 16.36 4.09 12.27
614 1 18.405 6.135 12.27
615 1 16.36 6.135 14.315
616 1 18.405 4.09 14.315
617 1 16.36 4.09 16.36
618 1 18.405 6.135 16.36
619 1 16.36 6.135 18.405
620 1 18.405 4.09 18.405
621 1 16.36 4.09 20.45
622 1 18.405 6.135 20.45
623 1 16.36 6.135 22.494999999999997
624 1 18.405 4.09 22.494999999999997
625 1 16.36 8.18 0.0
626 1 18.405 10.225 0.0
627 1 16.36 10.225 2.045
628 1 18.405 8.18 2.045
629 1 16.36 8.18 4.09
630 1 18.405 10.225 4.09
631 1 16.36 10.225 6.135
632 1 18.405 8.18 6.135
633 1 16.36 8.18 8.18
634 1 18.405 10.225 8.18
635 1 16.36 10.225 10.225
636 1 18.405 8.18 10.225
637 1 16.36 8.18 12.27
638 1 18.405 10.225 12.27
639 1 16.36 10.225 14.315
640 1 18.405 8.18 14.315
641 1 16.36 8.18 16.36
642 1 18.405 10.225 16.36
643 1 16.36 10.225 18.405
644 1 18.405 8.18 18.405
645 1 16.36 8.18 20.45
646 1 18.405 10.225 20.45
647 1 16.36 10.225 22.494999999999997
648 1 18.405 8.18 22.494999999999997
649 1 16.36 12.27 0.0
650 1 18.405 14.315 0.0
651 1 16.36 14.315 2.045
652 1 18.405 12.27 2.045
653 1 16.36 12.27 4.09
654 1 18.405 14.315 4.09
655 1 16.36 14.315 6.135
656 1 18.405 12.27 6.135
657 1 16.36 12.27 8.18
658 1 18.405 14.315 8.18
659 1 16.36 14.315 10.225
660 1 18.405 12.27 10.225
661 1 16.36 12.27 12.27
662 1 18.405 14.315 12.27
663 1 16.36 14.315 14.315
664 1 18.405 12.27 14.315
665 1 16.36 12.27 16.36
666 1 18.405 14.315 16.36
667 1 16.36 14.315 18.405
668 1 18.405 12.27 18.405
669 1 16.36 12.27 20.45
670 1 18.405 14.315 20.45
671 1 16.36 14.315 22.494999999999997
672 1 18.405 12.27 22.494999999999997
673 1 16.36 16.36 0.0
674 1 18.405 18.405 0.0
675 1 16.36 18.405 2.045
676 1 18.405 16.36 2.045
677 1 16.36 16.36 4.09
678 1 18.405 18.405 4.09
679 1 16.36 18.405 6.135
680 1 18.405 16.36 6.135
681 1 16.36 16.36 8.18
682 1 18.405 18.405 8.18
683 1 16.36 18.405 10.225
684 1 18.405 16.36 10.225
685 1 16.36 16.36 12.27
686 1 18.405 18.405 12.27
687 1 16.36 18.405 14.315
688 1 18.405 16.36 14.315
689 1 16.36 16.36 16.36
690 1 18.405 18.405 16.36
691 1 16.36 18.405 18.405
692 1 18.405 16.36 18.405
693 1 16.36 16.36 20.45
694 1 18.405 18.405 20.45
695 1 16.36 18.405 22.494999999999997
696 1 18.405 16.36 22.494999999999997
697 1 16.36 20.45 0.0
698 1 18.405 22.494999999999997 0.0
699 1 16.36 22.494999999999997 2.045
700 1 18.405 20.45 2.045
701 1 16.36 20.45 4.09
702 1 18.405 22.494999999999997 4.09
703 1 16.36 22.494999999999997 6.135
704 1 18.405 20.45 6.135
705 1 16.36 20.45 8.18
706 1 18.405 22.494999999999997 8.18
707 1 16.36 22.494999999999997 10.225
708 1 18.405 20.45 10.225
709 1 16.36 20.45 12.27
710 1 18.405 22.494999999999997 12.27
711 1 16.36 22.494999999999997 14.315
712 1 18.405 20.45 14.315
713 1 16.36 20.45 16.36
714 1 18.405 22.494999999999997 16.36
715 1 16.36 22.494999999999997 18.405
716 1 18.405 20.45 18.405
717 1 16.36 20.45 20.45
718 1 18.405 22.494999999999997 20.45
719 1 16.36 22.494999999999997 22.494999999999997
720 1 18.405 20.45 22.494999999999997
721 1 20.45 0.0 0.0
722 1 22.494999999999997 2.045 0.0
723 1 20.45 2.045 2.045
724 1 22.494999999999997 0.0 2.045
725 1 20.45 0.0 4.09
726 1 22.494999999999997 2.045 4.09
727 1 20.45 2.045 6.135
728 1 22.494999999999997 0.0 6.135
729 1 20.45 0.0 8.18
730 1 22.494999999999997 2.045 8.18
731 1 20.45 2.045 10.225
732 1 22.494999999999997 0.0 10.225
733 1 20.45 0.0 12.27
734 1 22.494999999999997 2.045 12.27
735 1 20.45 2.045 14.315
736 1 22.494999999999997 0.0 14.315
737 1 20.45 0.0 16.36
738 1 22.494999999999997 2.045 16.36
739 1 20.45 2.045 18.405
740 1 22.494999999999997 0.0 18.405
741 1 20.45 0.0 20.45
742 1 22.494999999999997 2.045 20.45
743 1 20.45 2.045 22.494999999999997
744 1 22.494999999999997 0.0 22.494999999999997
745 1 20.45 4.09 0.0
746 1 22.494999999999997 6.135 0.0
747 1 20.45 6.135 2.045
748 1 22.494999999999997 4.09 2.045
749 1 20.45 4.09 4.09
750 1 22.494999999999997 6.135 4.09
751 1 20.45 6.135 6.135
752 1 22.494999999999997 4.09 6.135
753 1 20.45 4.09 8.18
754 1 22.494999999999997 6.135 8.18
755 1 20.45 6.135 10.225
756 1 22.494999999999997 4.09 10.225
757 1 20.45 4.09 12.27
758 1 22.494999999999997 6.135 12.27
759 1 20.45 6.135 14.315
760 1 22.494999999999997 4.09 14.315
761 1 20.45 4.09 16.36
762 1 22.494999999999997 6.135 16.36
763 1 20.45 6.135 18.405
764 1 22.494999999999997 4.09 18.405
765 1 20.45 4.09 20.45
766 1 22.494999999999997 6.135 20.45
767 1 20.45 6.135 22.494999999999997
768 1 22.494999999999997 4.09 22.494999999999997
769 1 20.45 8.18 0.0
770 1 22.494999999999997 10.225 0.0
771 1 20.45 10.225 2.045
772 1 22.494999999999997 8.18 2.045
773 1 20.45 8.18 4.09
774 1 22.494999999999997 10.225 4.09
775 1 20.45 10.225 6.135
776 1 22.494999999999997 8.18 6.135
777 1 20.45 8.18 8.18
778 1 22.494999999999997 10.225 8.18
779 1 20.45 10.225 10.225
780 1 22.494999999999997 8.18 10.225
781 1 20.45 8.18 12.27
782 1 22.494999999999997 10.225 12.27
783 1 20.45 10.225 14.315
784 1 22.494999999999997 8.18 14.315
785 1 20.45 8.18 16.36
786 1 22.494999999999997 10.225 16.36
787 1 20.45 10.225 18.405
788 1 22.494999999999997 8.18 18.405
789 1 20.45 8.18 20.45
790 1 22.494999999999997 10.225 20.45
791 1 20.45 10.225 22.494999999999997
792 1 22.494999999999997 8.18 22.494999999999997
793 1 20.45 12.27 0.0
794 1 22.494999999999997 14.315 0.0
795 1 20.45 14.315 2.045
796 1 22.494999999999997 12.27 2.045
797 1 20.45 12.27 4.09
798 1 22.494999999999997 14.315 4.09
799 1 20.45 14.315 6.135
800 1 22.494999999999997 12.27 6.135
801 1 20.45 12.27 8.18
802 1 22.494999999999997 14.315 8.18
803 1 20.45 14.315 10.225
804 1 22.494999999999997 12.27 10.225
805 1 20.45 12.27 12.27
806 1 22.494999999999997 14.315 12.27
807 1 20.45 14.315 14.315
808 1 22.494999999999997 12.27 14.315
809 1 20.45 12.27 16.36
810 1 22.494999999999997 14.315 16.36
811 1 20.45 14.315 18.405
812 1 22.494999999999997 12.27 18.405
813 1 20.45 12.27 20.45
814 1 22.494999999999997 14.315 20.45
815 1 20.45 14.315 22.494999999999997
816 1 22.494999999999997 12.27 22.494999999999997
817 1 20.45 16.36 0.0
818 1 22.494999999999997 18.405 0.0
819 1 20.45 18.405 2.045
820 1 22.494999999999997 16.36 2.045
821 1 20.45 16.36 4.09
822 1 22.494999999999997 18.405 4.09
823 1 20.45 18.405 6.135
824 1 22.494999999999997 16.36 6.135
825 1 20.45 16.36 8.18
826 1 22.494999999999997 18.405 8.18
827 1 20.45 18.405 10.225
828 1 22.494999999999997 16.36 10.225
829 1 20.45 16.36 12.27
830 1 22.494999999999997 18.405 12.27
831 1 20.45 18.405 14.315
832 1 22.494999999999997 16.36 14.315
833 1 20.45 16.36 16.36
834 1 22.494999999999997 18.405 16.36
835 1 20.45 18.405 18.405
836 1 22.494999999999997 16.36 18.405
837 1 20.45 16.36 20.45
838 1 22.494999999999997 18.405 20.45
839 1 20.45 18.405 22.494999999999997
840 1 22.494999999999997 16.36 22.494999999999997
841 1 20.45 20.45 0.0
842 1 22.494999999999997 22.494999999999997 0.0
843 1 20.45 22.494999999999997 2.045
844 1 22.494999999999997 20.45 2.045
845 1 20.45 20.45 4.09
846 1 22.494999999999997 22.494999999999997 4.09
847 1 20.45 22.494999999999997 6.135
848 1 22.494999999999997 20.45 6.135
849 1 20.45 20.45 8.18
850 1 22.494999999999997 22.494999999999997 8.18
851 1 20.45 22.494999999999997 10.225
852 1 22.494999999999997 20.45 10.225
853 1 20.45 20.45 12.27
854 1 22.494999999999997 22.494999999999997 12.27
855 1 20.45 22.494999999999997 14.315
856 1 22.494999999999997 20.45 14.315
857 1 20.45 20.45 16.36
858 1 22.494999999999997 22.494999999999997 16.36
859 1 20.45 22.494999999999997 18.405
860 1 22.494999999999997 20.45 18.405
861 1 20.45 20.45 20.45
862 1 22.494999999999997 22.494999999999997 20.45
863 1 20.45 22.494999999999997 22.494999999999997
864 1 22.494999999999997 20.45 22.494999999999997
